
     Program PWSCF v.7.2 starts on  3Jul2025 at 11:54:54 

     This program is part of the open-source Quantum ESPRESSO suite
     for quantum simulation of materials; please cite
         "P. Giannozzi et al., J. Phys.:Condens. Matter 21 395502 (2009);
         "P. Giannozzi et al., J. Phys.:Condens. Matter 29 465901 (2017);
         "P. Giannozzi et al., J. Chem. Phys. 152 154105 (2020);
          URL http://www.quantum-espresso.org", 
     in publications or presentations arising from this work. More details at
     http://www.quantum-espresso.org/quote

     Parallel version (MPI & OpenMP), running on       2 processor cores
     Number of MPI processes:                 1
     Threads/MPI process:                     2

     MPI processes distributed on     1 nodes
     378 MiB available memory on the printing compute node when the environment starts

     Reading input from ../latticeparam/alpha_8_9.56.in

     Current dimensions of program PWSCF are:
     Max number of different atomic species (ntypx) = 10
     Max number of k-points (npk) =  40000
     Max angular momentum in pseudopotentials (lmaxx) =  4
     file B.pbesol-n-rrkjus_psl.1.0.0.UPF: wavefunction(s)  2S renormalized

     IMPORTANT: XC functional enforced from input :
     Exchange-correlation= PBESOL
                           (   1   4  10   8   0   0   0)
     Any further DFT definition will be discarded
     Please, verify this is what you really want


     Subspace diagonalization in iterative solution of the eigenvalue problem:
     a serial algorithm will be used


     G-vector sticks info
     --------------------
     sticks:   dense  smooth     PW     G-vecs:    dense   smooth      PW
     Sum        1765    1765    499               119609   119609   17423

     Using Slab Decomposition



     bravais-lattice index     =            4
     lattice parameter (alat)  =       9.5600  a.u.
     unit-cell volume          =    1513.3323 (a.u.)^3
     number of atoms/cell      =            8
     number of atomic types    =            1
     number of electrons       =        24.00
     number of Kohn-Sham states=           16
     kinetic-energy cutoff     =      70.0000  Ry
     charge density cutoff     =     280.0000  Ry
     scf convergence threshold =      1.0E-06
     mixing beta               =       0.7000
     number of iterations used =            8  plain     mixing
     Exchange-correlation= PBESOL
                           (   1   4  10   8   0   0   0)

     celldm(1)=   9.560000  celldm(2)=   0.000000  celldm(3)=   2.000000
     celldm(4)=   0.000000  celldm(5)=   0.000000  celldm(6)=   0.000000

     crystal axes: (cart. coord. in units of alat)
               a(1) = (   1.000000   0.000000   0.000000 )  
               a(2) = (  -0.500000   0.866025   0.000000 )  
               a(3) = (   0.000000   0.000000   2.000000 )  

     reciprocal axes: (cart. coord. in units 2 pi/alat)
               b(1) = (  1.000000  0.577350 -0.000000 )  
               b(2) = (  0.000000  1.154701  0.000000 )  
               b(3) = (  0.000000 -0.000000  0.500000 )  


     PseudoPot. # 1 for B  read from file:
     ../../pseudo/B.pbesol-n-rrkjus_psl.1.0.0.UPF
     MD5 check sum: a3839a09b1a4e02f2a06a66adc9253fc
     Pseudo is Ultrasoft + core correction, Zval =  3.0
     Generated using &quot;atomic&quot; code by A. Dal Corso  v.6.3MaX
     Using radial grid of 1059 points,  4 beta functions with: 
                l(1) =   0
                l(2) =   0
                l(3) =   1
                l(4) =   1
     Q(r) pseudized with 0 coefficients 


     atomic species   valence    mass     pseudopotential
        B              3.00    10.81100     B ( 1.00)

     24 Sym. Ops., with inversion, found



   Cartesian axes

     site n.     atom                  positions (alat units)
         1           B   tau(   1) = (   0.3333330   0.0000000   0.0000000  )
         2           B   tau(   2) = (   0.6666670   0.0000000   0.0000000  )
         3           B   tau(   3) = (  -0.1666665   0.2886748   0.0000000  )
         4           B   tau(   4) = (   0.1666665   0.2886748   0.0000000  )
         5           B   tau(   5) = (   0.5000005   0.2886748   0.0000000  )
         6           B   tau(   6) = (  -0.3333335   0.5773506   0.0000000  )
         7           B   tau(   7) = (  -0.0000005   0.5773506   0.0000000  )
         8           B   tau(   8) = (   0.3333335   0.5773506   0.0000000  )

     number of k points=    10  Marzari-Vanderbilt smearing, width (Ry)=  0.0350
                       cart. coord. in units 2pi/alat
        k(    1) = (   0.0000000   0.0000000   0.0000000), wk =   0.0312500
        k(    2) = (   0.0000000   0.1443376   0.0000000), wk =   0.1875000
        k(    3) = (   0.0000000   0.2886751   0.0000000), wk =   0.1875000
        k(    4) = (   0.0000000   0.4330127   0.0000000), wk =   0.1875000
        k(    5) = (   0.0000000  -0.5773503   0.0000000), wk =   0.0937500
        k(    6) = (   0.1250000   0.2165064   0.0000000), wk =   0.1875000
        k(    7) = (   0.1250000   0.3608439   0.0000000), wk =   0.3750000
        k(    8) = (   0.1250000   0.5051815   0.0000000), wk =   0.3750000
        k(    9) = (   0.2500000   0.4330127   0.0000000), wk =   0.1875000
        k(   10) = (   0.2500000   0.5773503   0.0000000), wk =   0.1875000

     Dense  grid:   119609 G-vectors     FFT dimensions: (  54,  54, 108)

     Estimated max dynamical RAM per process >     219.63 MB

     Initial potential from superposition of free atoms

     starting charge      23.9977, renormalised to      24.0000

     negative rho (up, down):  4.304E-05 0.000E+00
     Starting wfcs are   32 randomized atomic wfcs

     total cpu time spent up to now is        5.4 secs

     per-process dynamical memory:   124.0 Mb

     Self-consistent Calculation

     iteration #  1     ecut=    70.00 Ry     beta= 0.70
     Davidson diagonalization with overlap
     ethr =  1.00E-02,  avg # of iterations =  2.0

     negative rho (up, down):  3.688E-04 0.000E+00

     total cpu time spent up to now is       15.6 secs

     total energy              =     -49.86786660 Ry
     estimated scf accuracy    <       0.70077823 Ry

     iteration #  2     ecut=    70.00 Ry     beta= 0.70
     Davidson diagonalization with overlap
     ethr =  2.92E-03,  avg # of iterations =  2.0

     negative rho (up, down):  6.491E-04 0.000E+00

     total cpu time spent up to now is       25.5 secs

     total energy              =     -49.98194667 Ry
     estimated scf accuracy    <       0.01808566 Ry

     iteration #  3     ecut=    70.00 Ry     beta= 0.70
     Davidson diagonalization with overlap
     ethr =  7.54E-05,  avg # of iterations =  2.6

     negative rho (up, down):  7.496E-04 0.000E+00

     total cpu time spent up to now is       82.7 secs

     total energy              =     -49.98660638 Ry
     estimated scf accuracy    <       0.00470494 Ry

     iteration #  4     ecut=    70.00 Ry     beta= 0.70
     Davidson diagonalization with overlap
     ethr =  1.96E-05,  avg # of iterations =  3.8

     negative rho (up, down):  8.535E-04 0.000E+00

     total cpu time spent up to now is       93.7 secs

     total energy              =     -49.98762635 Ry
     estimated scf accuracy    <       0.00016652 Ry

     iteration #  5     ecut=    70.00 Ry     beta= 0.70
     Davidson diagonalization with overlap
     ethr =  6.94E-07,  avg # of iterations =  5.4

     negative rho (up, down):  8.629E-04 0.000E+00

     total cpu time spent up to now is      106.1 secs

     total energy              =     -49.98764622 Ry
     estimated scf accuracy    <       0.00001525 Ry

     iteration #  6     ecut=    70.00 Ry     beta= 0.70
     Davidson diagonalization with overlap
     ethr =  6.36E-08,  avg # of iterations =  3.0

     negative rho (up, down):  8.632E-04 0.000E+00

     total cpu time spent up to now is      104.8 secs

     End of self-consistent calculation

          k = 0.0000 0.0000 0.0000 ( 14985 PWs)   bands (ev):

   -16.2044 -12.0841 -12.0045 -12.0044  -9.7483  -9.7482  -7.6269  -7.0689
    -2.1099  -2.1099  -0.6430  -0.1291  -0.1290   0.1656   0.1656   0.5191

          k = 0.0000 0.1443 0.0000 ( 14998 PWs)   bands (ev):

   -16.1344 -12.8417 -12.0676 -11.3058  -9.8269  -9.5716  -7.3328  -6.9611
    -2.8415  -2.7318  -1.7463  -0.6450   0.0102   0.8593   0.9626   1.2461

          k = 0.0000 0.2887 0.0000 ( 14968 PWs)   bands (ev):

   -15.9296 -13.6009 -12.1981 -10.9316  -9.6324  -9.1206  -6.8125  -6.6429
    -4.0168  -3.6479  -3.0297  -1.1813  -0.2497   2.0604   2.3192   2.4103

          k = 0.0000 0.4330 0.0000 ( 14982 PWs)   bands (ev):

   -15.6189 -14.2585 -12.3072 -10.9667  -8.9801  -8.5771  -6.7170  -6.1444
    -5.0211  -4.1313  -4.0632  -1.5128  -0.4731   3.1516   3.4289   3.5920

          k = 0.0000-0.5774 0.0000 ( 14902 PWs)   bands (ev):

   -15.3871 -14.6084 -12.3479 -11.0133  -8.5501  -8.2877  -6.9453  -5.7358
    -5.4655  -4.7439  -4.0505  -1.6242  -0.5554   3.3646   3.8207   4.1905

          k = 0.1250 0.2165 0.0000 ( 14965 PWs)   bands (ev):

   -15.9966 -13.3903 -12.2294 -10.8389  -9.8863  -9.2031  -6.9407  -6.7477
    -3.7236  -3.3915  -2.6298  -1.4055   0.4605   1.3705   1.5304   2.1454

          k = 0.1250 0.3608 0.0000 ( 14961 PWs)   bands (ev):

   -15.7335 -14.0179 -12.4465 -10.5738  -9.5714  -8.6424  -6.7484  -6.3334
    -4.5366  -4.0510  -3.6659  -1.9937   0.4710   2.3195   2.3435   3.1819

          k = 0.1250 0.5052 0.0000 ( 14988 PWs)   bands (ev):

   -15.4086 -14.5427 -12.5753 -10.5957  -8.9277  -8.1861  -7.1620  -5.7946
    -5.0463  -4.5585  -4.1372  -2.2661   0.3533   3.0280   3.5250   3.6352

          k = 0.2500 0.4330 0.0000 ( 14945 PWs)   bands (ev):

   -15.4280 -14.4739 -12.7576  -9.9800  -9.5076  -8.1388  -7.3023  -5.8433
    -4.4732  -4.4424  -4.3424  -2.7141   1.4700   2.3695   2.6128   3.7424

          k = 0.2500 0.5774 0.0000 ( 14936 PWs)   bands (ev):

   -15.1556 -14.7992 -12.8770  -9.8434  -9.1597  -7.9283  -7.8327  -5.3861
    -4.8715  -4.6283  -4.2917  -2.9547   1.6942   2.8792   3.0893   3.1658

     the Fermi energy is    -0.5836 ev

!    total energy              =     -49.98765049 Ry
     estimated scf accuracy    <       0.00000069 Ry
     smearing contrib. (-TS)   =      -0.00035425 Ry
     internal energy E=F+TS    =     -49.98729624 Ry

     The total energy is F=E-TS. E is the sum of the following terms:
     one-electron contribution =    -179.56953357 Ry
     hartree contribution      =      94.37911945 Ry
     xc contribution           =     -23.24249239 Ry
     ewald contribution        =      58.44561026 Ry

     convergence has been achieved in   6 iterations

     Writing all to output data dir ../../outdir/borophene.save/

     init_run     :      7.20s CPU      5.32s WALL (       1 calls)
     electrons    :     87.12s CPU     99.46s WALL (       1 calls)

     Called by init_run:
     wfcinit      :      6.18s CPU      4.31s WALL (       1 calls)
     potinit      :      0.20s CPU      0.17s WALL (       1 calls)
     hinit0       :      0.69s CPU      0.63s WALL (       1 calls)

     Called by electrons:
     c_bands      :     70.28s CPU     39.56s WALL (       6 calls)
     sum_band     :     15.32s CPU     12.00s WALL (       6 calls)
     v_of_rho     :      1.10s CPU     47.40s WALL (       7 calls)
     newd         :      0.47s CPU      0.56s WALL (       7 calls)
     mix_rho      :      0.14s CPU      0.13s WALL (       6 calls)

     Called by c_bands:
     init_us_2    :      0.70s CPU      0.66s WALL (     130 calls)
     init_us_2:cp :      0.70s CPU      0.66s WALL (     130 calls)
     cegterg      :     69.00s CPU     38.52s WALL (      60 calls)

     Called by *egterg:
     cdiaghg      :      0.13s CPU      0.08s WALL (     248 calls)
     h_psi        :     68.77s CPU     38.60s WALL (     258 calls)
     s_psi        :      1.52s CPU      0.87s WALL (     258 calls)
     g_psi        :      0.21s CPU      0.19s WALL (     188 calls)

     Called by h_psi:
     h_psi:calbec :      1.72s CPU      1.59s WALL (     258 calls)
     vloc_psi     :     65.41s CPU     35.96s WALL (     258 calls)
     add_vuspsi   :      1.39s CPU      0.79s WALL (     258 calls)

     General routines
     calbec       :      2.31s CPU      2.06s WALL (     318 calls)
     fft          :      0.85s CPU      0.76s WALL (      77 calls)
     ffts         :      0.04s CPU      0.03s WALL (       6 calls)
     fftw         :     67.14s CPU     37.37s WALL (    6930 calls)

     Parallel routines

     PWSCF        :   1m34.42s CPU   1m44.99s WALL


   This run was terminated on:  11:56:39   3Jul2025            

=------------------------------------------------------------------------------=
   JOB DONE.
=------------------------------------------------------------------------------=
