
     Program PWSCF v.7.2 starts on  3Jul2025 at 11:48:15 

     This program is part of the open-source Quantum ESPRESSO suite
     for quantum simulation of materials; please cite
         "P. Giannozzi et al., J. Phys.:Condens. Matter 21 395502 (2009);
         "P. Giannozzi et al., J. Phys.:Condens. Matter 29 465901 (2017);
         "P. Giannozzi et al., J. Chem. Phys. 152 154105 (2020);
          URL http://www.quantum-espresso.org", 
     in publications or presentations arising from this work. More details at
     http://www.quantum-espresso.org/quote

     Parallel version (MPI & OpenMP), running on       2 processor cores
     Number of MPI processes:                 1
     Threads/MPI process:                     2

     MPI processes distributed on     1 nodes
     403 MiB available memory on the printing compute node when the environment starts

     Reading input from ../latticeparam/alpha_7_9.58.in

     Current dimensions of program PWSCF are:
     Max number of different atomic species (ntypx) = 10
     Max number of k-points (npk) =  40000
     Max angular momentum in pseudopotentials (lmaxx) =  4
     file B.pbesol-n-rrkjus_psl.1.0.0.UPF: wavefunction(s)  2S renormalized

     IMPORTANT: XC functional enforced from input :
     Exchange-correlation= PBESOL
                           (   1   4  10   8   0   0   0)
     Any further DFT definition will be discarded
     Please, verify this is what you really want


     Subspace diagonalization in iterative solution of the eigenvalue problem:
     a serial algorithm will be used


     G-vector sticks info
     --------------------
     sticks:   dense  smooth     PW     G-vecs:    dense   smooth      PW
     Sum        1777    1777    499               120595   120595   17255

     Using Slab Decomposition



     bravais-lattice index     =            4
     lattice parameter (alat)  =       9.5800  a.u.
     unit-cell volume          =    1522.8501 (a.u.)^3
     number of atoms/cell      =            8
     number of atomic types    =            1
     number of electrons       =        24.00
     number of Kohn-Sham states=           16
     kinetic-energy cutoff     =      70.0000  Ry
     charge density cutoff     =     280.0000  Ry
     scf convergence threshold =      1.0E-06
     mixing beta               =       0.7000
     number of iterations used =            8  plain     mixing
     Exchange-correlation= PBESOL
                           (   1   4  10   8   0   0   0)

     celldm(1)=   9.580000  celldm(2)=   0.000000  celldm(3)=   2.000000
     celldm(4)=   0.000000  celldm(5)=   0.000000  celldm(6)=   0.000000

     crystal axes: (cart. coord. in units of alat)
               a(1) = (   1.000000   0.000000   0.000000 )  
               a(2) = (  -0.500000   0.866025   0.000000 )  
               a(3) = (   0.000000   0.000000   2.000000 )  

     reciprocal axes: (cart. coord. in units 2 pi/alat)
               b(1) = (  1.000000  0.577350 -0.000000 )  
               b(2) = (  0.000000  1.154701  0.000000 )  
               b(3) = (  0.000000 -0.000000  0.500000 )  


     PseudoPot. # 1 for B  read from file:
     ../../pseudo/B.pbesol-n-rrkjus_psl.1.0.0.UPF
     MD5 check sum: a3839a09b1a4e02f2a06a66adc9253fc
     Pseudo is Ultrasoft + core correction, Zval =  3.0
     Generated using &quot;atomic&quot; code by A. Dal Corso  v.6.3MaX
     Using radial grid of 1059 points,  4 beta functions with: 
                l(1) =   0
                l(2) =   0
                l(3) =   1
                l(4) =   1
     Q(r) pseudized with 0 coefficients 


     atomic species   valence    mass     pseudopotential
        B              3.00    10.81100     B ( 1.00)

     24 Sym. Ops., with inversion, found



   Cartesian axes

     site n.     atom                  positions (alat units)
         1           B   tau(   1) = (   0.3333330   0.0000000   0.0000000  )
         2           B   tau(   2) = (   0.6666670   0.0000000   0.0000000  )
         3           B   tau(   3) = (  -0.1666665   0.2886748   0.0000000  )
         4           B   tau(   4) = (   0.1666665   0.2886748   0.0000000  )
         5           B   tau(   5) = (   0.5000005   0.2886748   0.0000000  )
         6           B   tau(   6) = (  -0.3333335   0.5773506   0.0000000  )
         7           B   tau(   7) = (  -0.0000005   0.5773506   0.0000000  )
         8           B   tau(   8) = (   0.3333335   0.5773506   0.0000000  )

     number of k points=     8  Marzari-Vanderbilt smearing, width (Ry)=  0.0350
                       cart. coord. in units 2pi/alat
        k(    1) = (   0.0000000   0.0000000   0.0000000), wk =   0.0408163
        k(    2) = (   0.0000000   0.1649572   0.0000000), wk =   0.2448980
        k(    3) = (   0.0000000   0.3299144   0.0000000), wk =   0.2448980
        k(    4) = (   0.0000000   0.4948717   0.0000000), wk =   0.2448980
        k(    5) = (   0.1428571   0.2474358   0.0000000), wk =   0.2448980
        k(    6) = (   0.1428571   0.4123930   0.0000000), wk =   0.4897959
        k(    7) = (   0.1428571   0.5773503   0.0000000), wk =   0.2448980
        k(    8) = (   0.2857143   0.4948717   0.0000000), wk =   0.2448980

     Dense  grid:   120595 G-vectors     FFT dimensions: (  54,  54, 108)

     Estimated max dynamical RAM per process >     213.80 MB

     Initial potential from superposition of free atoms

     starting charge      23.9977, renormalised to      24.0000

     negative rho (up, down):  4.485E-05 0.000E+00
     Starting wfcs are   32 randomized atomic wfcs

     total cpu time spent up to now is        4.5 secs

     per-process dynamical memory:   117.1 Mb

     Self-consistent Calculation

     iteration #  1     ecut=    70.00 Ry     beta= 0.70
     Davidson diagonalization with overlap
     ethr =  1.00E-02,  avg # of iterations =  2.0

     negative rho (up, down):  3.630E-04 0.000E+00

     total cpu time spent up to now is       12.8 secs

     total energy              =     -49.86954110 Ry
     estimated scf accuracy    <       0.68897896 Ry

     iteration #  2     ecut=    70.00 Ry     beta= 0.70
     Davidson diagonalization with overlap
     ethr =  2.87E-03,  avg # of iterations =  2.0

     negative rho (up, down):  6.334E-04 0.000E+00

     total cpu time spent up to now is       20.5 secs

     total energy              =     -49.98157819 Ry
     estimated scf accuracy    <       0.01764599 Ry

     iteration #  3     ecut=    70.00 Ry     beta= 0.70
     Davidson diagonalization with overlap
     ethr =  7.35E-05,  avg # of iterations =  4.9

     negative rho (up, down):  7.279E-04 0.000E+00

     total cpu time spent up to now is       19.3 secs

     total energy              =     -49.98605536 Ry
     estimated scf accuracy    <       0.00483280 Ry

     iteration #  4     ecut=    70.00 Ry     beta= 0.70
     Davidson diagonalization with overlap
     ethr =  2.01E-05,  avg # of iterations =  2.8

     negative rho (up, down):  8.286E-04 0.000E+00

     total cpu time spent up to now is       27.0 secs

     total energy              =     -49.98711561 Ry
     estimated scf accuracy    <       0.00017011 Ry

     iteration #  5     ecut=    70.00 Ry     beta= 0.70
     Davidson diagonalization with overlap
     ethr =  7.09E-07,  avg # of iterations =  5.0

     negative rho (up, down):  8.390E-04 0.000E+00

     total cpu time spent up to now is       37.5 secs

     total energy              =     -49.98713619 Ry
     estimated scf accuracy    <       0.00001606 Ry

     iteration #  6     ecut=    70.00 Ry     beta= 0.70
     Davidson diagonalization with overlap
     ethr =  6.69E-08,  avg # of iterations =  2.5

     negative rho (up, down):  8.394E-04 0.000E+00

     total cpu time spent up to now is       46.9 secs

     End of self-consistent calculation

          k = 0.0000 0.0000 0.0000 ( 15117 PWs)   bands (ev):

   -16.1953 -12.0839 -12.0031 -12.0030  -9.7580  -9.7579  -7.6307  -7.0620
    -2.1400  -2.1400  -0.6671  -0.1541  -0.1540   0.1228   0.1228   0.4901

          k = 0.0000 0.1650 0.0000 ( 15092 PWs)   bands (ev):

   -16.1043 -12.9515 -12.0835 -11.2207  -9.8397  -9.5299  -7.2631  -6.9220
    -3.0342  -2.8987  -1.9530  -0.7547  -0.0460   0.9745   1.0995   1.3648

          k = 0.0000 0.3299 0.0000 ( 15046 PWs)   bands (ev):

   -15.8410 -13.7992 -12.2340 -10.9249  -9.4731  -8.9729  -6.7240  -6.5117
    -4.3602  -3.8634  -3.3784  -1.3177  -0.3479   2.3434   2.6499   2.7406

          k = 0.0000 0.4949 0.0000 ( 15082 PWs)   bands (ev):

   -15.4751 -14.4694 -12.3344 -10.9999  -8.7185  -8.4002  -6.8464  -5.9103
    -5.3340  -4.5059  -4.0925  -1.6061  -0.5504   3.3301   3.6761   3.7457

          k = 0.1429 0.2474 0.0000 ( 15063 PWs)   bands (ev):

   -15.9262 -13.5629 -12.2974 -10.7065  -9.8794  -9.0578  -6.8391  -6.6459
    -4.0136  -3.6287  -2.9255  -1.6392   0.5365   1.4736   1.6917   2.5203

          k = 0.1429 0.4124 0.0000 ( 15084 PWs)   bands (ev):

   -15.5941 -14.2407 -12.5472 -10.4852  -9.3964  -8.4170  -6.9025  -6.1190
    -4.7338  -4.2024  -4.0392  -2.2449   0.5677   2.5110   2.6144   3.4146

          k = 0.1429 0.5774 0.0000 ( 15074 PWs)   bands (ev):

   -15.3046 -14.6560 -12.6416 -10.5068  -8.8404  -8.0870  -7.3784  -5.6215
    -5.0764  -4.7596  -4.1555  -2.4309   0.4942   3.0512   3.2419   3.8923

          k = 0.2857 0.4949 0.0000 ( 15047 PWs)   bands (ev):

   -15.2228 -14.7072 -12.8694  -9.7507  -9.3690  -7.9664  -7.7324  -5.5193
    -4.7147  -4.5255  -4.4216  -2.9605   1.8378   2.5857   2.6877   3.2440

     the Fermi energy is    -0.6059 ev

!    total energy              =     -49.98714052 Ry
     estimated scf accuracy    <       0.00000045 Ry
     smearing contrib. (-TS)   =      -0.00122800 Ry
     internal energy E=F+TS    =     -49.98591252 Ry

     The total energy is F=E-TS. E is the sum of the following terms:
     one-electron contribution =    -179.33647963 Ry
     hartree contribution      =      94.23811998 Ry
     xc contribution           =     -23.21114725 Ry
     ewald contribution        =      58.32359438 Ry

     convergence has been achieved in   6 iterations

     Writing all to output data dir ../../outdir/borophene.save/

     init_run     :      6.04s CPU      4.40s WALL (       1 calls)
     electrons    :     70.00s CPU     42.50s WALL (       1 calls)

     Called by init_run:
     wfcinit      :      5.05s CPU      3.47s WALL (       1 calls)
     potinit      :      0.18s CPU      0.14s WALL (       1 calls)
     hinit0       :      0.69s CPU      0.62s WALL (       1 calls)

     Called by electrons:
     c_bands      :     56.20s CPU     31.43s WALL (       6 calls)
     sum_band     :     12.31s CPU      9.72s WALL (       6 calls)
     v_of_rho     :      1.07s CPU      0.81s WALL (       7 calls)
     newd         :      0.45s CPU      0.58s WALL (       7 calls)
     mix_rho      :      0.13s CPU      0.12s WALL (       6 calls)

     Called by c_bands:
     init_us_2    :      0.57s CPU      0.54s WALL (     104 calls)
     init_us_2:cp :      0.56s CPU      0.54s WALL (     104 calls)
     cegterg      :     55.19s CPU     30.63s WALL (      48 calls)

     Called by *egterg:
     cdiaghg      :      0.11s CPU      0.07s WALL (     201 calls)
     h_psi        :     55.21s CPU     30.70s WALL (     209 calls)
     s_psi        :      1.18s CPU      0.71s WALL (     209 calls)
     g_psi        :      0.15s CPU      0.14s WALL (     153 calls)

     Called by h_psi:
     h_psi:calbec :      1.33s CPU      1.28s WALL (     209 calls)
     vloc_psi     :     52.57s CPU     28.57s WALL (     209 calls)
     add_vuspsi   :      1.12s CPU      0.65s WALL (     209 calls)

     General routines
     calbec       :      1.82s CPU      1.65s WALL (     257 calls)
     fft          :      0.79s CPU      0.73s WALL (      77 calls)
     ffts         :      0.04s CPU      0.03s WALL (       6 calls)
     fftw         :     54.11s CPU     29.97s WALL (    5552 calls)

     Parallel routines

     PWSCF        :   1m16.13s CPU     47.16s WALL


   This run was terminated on:  11:49: 2   3Jul2025            

=------------------------------------------------------------------------------=
   JOB DONE.
=------------------------------------------------------------------------------=
