
     Program PWSCF v.7.2 starts on  3Jul2025 at 12:15:21 

     This program is part of the open-source Quantum ESPRESSO suite
     for quantum simulation of materials; please cite
         "P. Giannozzi et al., J. Phys.:Condens. Matter 21 395502 (2009);
         "P. Giannozzi et al., J. Phys.:Condens. Matter 29 465901 (2017);
         "P. Giannozzi et al., J. Chem. Phys. 152 154105 (2020);
          URL http://www.quantum-espresso.org", 
     in publications or presentations arising from this work. More details at
     http://www.quantum-espresso.org/quote

     Parallel version (MPI & OpenMP), running on       2 processor cores
     Number of MPI processes:                 1
     Threads/MPI process:                     2

     MPI processes distributed on     1 nodes
     391 MiB available memory on the printing compute node when the environment starts

     Reading input from ../latticeparam/alpha_10_9.52.in

     Current dimensions of program PWSCF are:
     Max number of different atomic species (ntypx) = 10
     Max number of k-points (npk) =  40000
     Max angular momentum in pseudopotentials (lmaxx) =  4
     file B.pbesol-n-rrkjus_psl.1.0.0.UPF: wavefunction(s)  2S renormalized

     IMPORTANT: XC functional enforced from input :
     Exchange-correlation= PBESOL
                           (   1   4  10   8   0   0   0)
     Any further DFT definition will be discarded
     Please, verify this is what you really want


     Subspace diagonalization in iterative solution of the eigenvalue problem:
     a serial algorithm will be used


     G-vector sticks info
     --------------------
     sticks:   dense  smooth     PW     G-vecs:    dense   smooth      PW
     Sum        1759    1759    475               118475   118475   17003

     Using Slab Decomposition



     bravais-lattice index     =            4
     lattice parameter (alat)  =       9.5200  a.u.
     unit-cell volume          =    1494.4159 (a.u.)^3
     number of atoms/cell      =            8
     number of atomic types    =            1
     number of electrons       =        24.00
     number of Kohn-Sham states=           16
     kinetic-energy cutoff     =      70.0000  Ry
     charge density cutoff     =     280.0000  Ry
     scf convergence threshold =      1.0E-06
     mixing beta               =       0.7000
     number of iterations used =            8  plain     mixing
     Exchange-correlation= PBESOL
                           (   1   4  10   8   0   0   0)

     celldm(1)=   9.520000  celldm(2)=   0.000000  celldm(3)=   2.000000
     celldm(4)=   0.000000  celldm(5)=   0.000000  celldm(6)=   0.000000

     crystal axes: (cart. coord. in units of alat)
               a(1) = (   1.000000   0.000000   0.000000 )  
               a(2) = (  -0.500000   0.866025   0.000000 )  
               a(3) = (   0.000000   0.000000   2.000000 )  

     reciprocal axes: (cart. coord. in units 2 pi/alat)
               b(1) = (  1.000000  0.577350 -0.000000 )  
               b(2) = (  0.000000  1.154701  0.000000 )  
               b(3) = (  0.000000 -0.000000  0.500000 )  


     PseudoPot. # 1 for B  read from file:
     ../../pseudo/B.pbesol-n-rrkjus_psl.1.0.0.UPF
     MD5 check sum: a3839a09b1a4e02f2a06a66adc9253fc
     Pseudo is Ultrasoft + core correction, Zval =  3.0
     Generated using &quot;atomic&quot; code by A. Dal Corso  v.6.3MaX
     Using radial grid of 1059 points,  4 beta functions with: 
                l(1) =   0
                l(2) =   0
                l(3) =   1
                l(4) =   1
     Q(r) pseudized with 0 coefficients 


     atomic species   valence    mass     pseudopotential
        B              3.00    10.81100     B ( 1.00)

     24 Sym. Ops., with inversion, found



   Cartesian axes

     site n.     atom                  positions (alat units)
         1           B   tau(   1) = (   0.3333330   0.0000000   0.0000000  )
         2           B   tau(   2) = (   0.6666670   0.0000000   0.0000000  )
         3           B   tau(   3) = (  -0.1666665   0.2886748   0.0000000  )
         4           B   tau(   4) = (   0.1666665   0.2886748   0.0000000  )
         5           B   tau(   5) = (   0.5000005   0.2886748   0.0000000  )
         6           B   tau(   6) = (  -0.3333335   0.5773506   0.0000000  )
         7           B   tau(   7) = (  -0.0000005   0.5773506   0.0000000  )
         8           B   tau(   8) = (   0.3333335   0.5773506   0.0000000  )

     number of k points=    14  Marzari-Vanderbilt smearing, width (Ry)=  0.0350
                       cart. coord. in units 2pi/alat
        k(    1) = (   0.0000000   0.0000000   0.0000000), wk =   0.0200000
        k(    2) = (   0.0000000   0.1154701   0.0000000), wk =   0.1200000
        k(    3) = (   0.0000000   0.2309401   0.0000000), wk =   0.1200000
        k(    4) = (   0.0000000   0.3464102   0.0000000), wk =   0.1200000
        k(    5) = (   0.0000000   0.4618802   0.0000000), wk =   0.1200000
        k(    6) = (   0.0000000  -0.5773503   0.0000000), wk =   0.0600000
        k(    7) = (   0.1000000   0.1732051   0.0000000), wk =   0.1200000
        k(    8) = (   0.1000000   0.2886751   0.0000000), wk =   0.2400000
        k(    9) = (   0.1000000   0.4041452   0.0000000), wk =   0.2400000
        k(   10) = (   0.1000000   0.5196152   0.0000000), wk =   0.2400000
        k(   11) = (   0.2000000   0.3464102   0.0000000), wk =   0.1200000
        k(   12) = (   0.2000000   0.4618802   0.0000000), wk =   0.2400000
        k(   13) = (   0.2000000   0.5773503   0.0000000), wk =   0.1200000
        k(   14) = (   0.3000000   0.5196152   0.0000000), wk =   0.1200000

     Dense  grid:   118475 G-vectors     FFT dimensions: (  54,  54, 108)

     Estimated max dynamical RAM per process >     232.03 MB

     Initial potential from superposition of free atoms

     starting charge      23.9977, renormalised to      24.0000

     negative rho (up, down):  3.439E-05 0.000E+00
     Starting wfcs are   32 randomized atomic wfcs

     total cpu time spent up to now is        0.5 secs

     per-process dynamical memory:   138.0 Mb

     Self-consistent Calculation

     iteration #  1     ecut=    70.00 Ry     beta= 0.70
     Davidson diagonalization with overlap
     ethr =  1.00E-02,  avg # of iterations =  2.0

     negative rho (up, down):  3.622E-04 0.000E+00

     total cpu time spent up to now is       23.5 secs

     total energy              =     -49.86197714 Ry
     estimated scf accuracy    <       0.72675379 Ry

     iteration #  2     ecut=    70.00 Ry     beta= 0.70
     Davidson diagonalization with overlap
     ethr =  3.03E-03,  avg # of iterations =  2.0

     negative rho (up, down):  6.412E-04 0.000E+00

     total cpu time spent up to now is       93.6 secs

     total energy              =     -49.98072880 Ry
     estimated scf accuracy    <       0.01945213 Ry

     iteration #  3     ecut=    70.00 Ry     beta= 0.70
     Davidson diagonalization with overlap
     ethr =  8.11E-05,  avg # of iterations =  3.5

     negative rho (up, down):  7.471E-04 0.000E+00

     total cpu time spent up to now is      107.9 secs

     total energy              =     -49.98580606 Ry
     estimated scf accuracy    <       0.00496378 Ry

     iteration #  4     ecut=    70.00 Ry     beta= 0.70
     Davidson diagonalization with overlap
     ethr =  2.07E-05,  avg # of iterations =  4.4

     negative rho (up, down):  8.599E-04 0.000E+00

     total cpu time spent up to now is      132.4 secs

     total energy              =     -49.98687760 Ry
     estimated scf accuracy    <       0.00016830 Ry

     iteration #  5     ecut=    70.00 Ry     beta= 0.70
     Davidson diagonalization with overlap
     ethr =  7.01E-07,  avg # of iterations =  5.7

     negative rho (up, down):  8.691E-04 0.000E+00

     total cpu time spent up to now is      149.6 secs

     total energy              =     -49.98689795 Ry
     estimated scf accuracy    <       0.00001619 Ry

     iteration #  6     ecut=    70.00 Ry     beta= 0.70
     Davidson diagonalization with overlap
     ethr =  6.74E-08,  avg # of iterations =  2.6

     negative rho (up, down):  8.693E-04 0.000E+00

     total cpu time spent up to now is      161.9 secs

     End of self-consistent calculation

          k = 0.0000 0.0000 0.0000 ( 14787 PWs)   bands (ev):

   -16.2209 -12.0828 -12.0055 -12.0055  -9.7279  -9.7279  -7.6197  -7.0818
    -2.0481  -2.0481  -0.5931  -0.0777  -0.0776   0.2528   0.2528   0.5780

          k = 0.0000 0.1155 0.0000 ( 14810 PWs)   bands (ev):

   -16.1757 -12.6855 -12.0470 -11.4360  -9.7923  -9.6134  -7.4200  -7.0121
    -2.5624  -2.4855  -1.4400  -0.4710   0.0951   0.7376   0.8113   1.1080

          k = 0.0000 0.2309 0.0000 ( 14788 PWs)   bands (ev):

   -16.0423 -13.3092 -12.1440 -11.0058  -9.7728  -9.3049  -6.9933  -6.8048
    -3.4939  -3.2551  -2.5018  -0.9459  -0.0879   1.6758   1.8692   1.9906

          k = 0.0000 0.3464 0.0000 ( 14798 PWs)   bands (ev):

   -15.8290 -13.8872 -12.2469 -10.9170  -9.3872  -8.8823  -6.6800  -6.4684
    -4.4059  -3.8449  -3.4788  -1.2998  -0.3043   2.6523   2.9752   3.0163

          k = 0.0000 0.4619 0.0000 ( 14780 PWs)   bands (ev):

   -15.5658 -14.3752 -12.3201 -10.9748  -8.8395  -8.4661  -6.7554  -6.0365
    -5.1214  -4.3032  -4.0220  -1.5148  -0.4566   3.4327   3.6325   3.9357

          k = 0.0000-0.5774 0.0000 ( 14822 PWs)   bands (ev):

   -15.3993 -14.6177 -12.3463 -11.0064  -8.5414  -8.2717  -6.9303  -5.7357
    -5.4160  -4.7361  -4.0018  -1.5868  -0.5103   3.5230   3.9409   4.2629

          k = 0.1000 0.1732 0.0000 ( 14793 PWs)   bands (ev):

   -16.0864 -13.1380 -12.1471 -11.0386  -9.8636  -9.3750  -7.1124  -6.8735
    -3.2607  -3.0204  -2.1811  -1.0550   0.3913   1.2450   1.3020   1.6757

          k = 0.1000 0.2887 0.0000 ( 14787 PWs)   bands (ev):

   -15.9121 -13.6732 -12.3040 -10.7191  -9.7577  -8.9671  -6.7687  -6.6007
    -4.0721  -3.6678  -3.0744  -1.5820   0.3895   1.9478   2.0450   2.8577

          k = 0.1000 0.4041 0.0000 ( 14771 PWs)   bands (ev):

   -15.6673 -14.1817 -12.4378 -10.6834  -9.2929  -8.5193  -6.7648  -6.2089
    -4.7129  -4.0493  -3.9329  -1.9150   0.2434   2.7743   2.9632   3.3752

          k = 0.1000 0.5196 0.0000 ( 14775 PWs)   bands (ev):

   -15.4145 -14.5722 -12.5113 -10.7194  -8.7985  -8.1938  -7.0899  -5.7782
    -5.1244  -4.6083  -4.0563  -2.0767   0.1504   3.3291   3.6467   3.9711

          k = 0.2000 0.3464 0.0000 ( 14779 PWs)   bands (ev):

   -15.7027 -14.0908 -12.5479 -10.2982  -9.7188  -8.5133  -6.8051  -6.2685
    -4.4406  -4.1129  -3.7163  -2.2304   1.0543   2.0252   2.4347   3.2996

          k = 0.2000 0.4619 0.0000 ( 14774 PWs)   bands (ev):

   -15.4369 -14.4957 -12.7255 -10.1482  -9.3219  -8.1344  -7.2629  -5.8357
    -4.6228  -4.3756  -4.2467  -2.6056   1.2140   2.7929   2.8296   3.8070

          k = 0.2000 0.5774 0.0000 ( 14790 PWs)   bands (ev):

   -15.2502 -14.7314 -12.7878 -10.1429  -8.9902  -7.9800  -7.6134  -5.5098
    -4.7868  -4.7662  -4.1630  -2.7238   1.2070   3.0961   3.4190   3.5666

          k = 0.3000 0.5196 0.0000 ( 14777 PWs)   bands (ev):

   -15.1618 -14.8082 -12.9039  -9.6368  -9.3239  -7.9093  -7.8467  -5.3871
    -4.8340  -4.4507  -4.3416  -2.9945   2.1239   2.7571   2.9733   3.3492

     the Fermi energy is    -0.5379 ev

!    total energy              =     -49.98690253 Ry
     estimated scf accuracy    <       0.00000085 Ry
     smearing contrib. (-TS)   =       0.00035557 Ry
     internal energy E=F+TS    =     -49.98725810 Ry

     The total energy is F=E-TS. E is the sum of the following terms:
     one-electron contribution =    -180.03769190 Ry
     hartree contribution      =      94.66525591 Ry
     xc contribution           =     -23.30600217 Ry
     ewald contribution        =      58.69118006 Ry

     convergence has been achieved in   6 iterations

     Writing all to output data dir ../../outdir/borophene.save/

     init_run     :     20.49s CPU      0.32s WALL (       1 calls)
     electrons    :    224.93s CPU    161.45s WALL (       1 calls)

     Called by init_run:
     wfcinit      :     18.61s CPU     -1.32s WALL (       1 calls)
     potinit      :      0.42s CPU      0.28s WALL (       1 calls)
     hinit0       :      1.18s CPU      1.00s WALL (       1 calls)

     Called by electrons:
     c_bands      :    185.54s CPU    145.65s WALL (       6 calls)
     sum_band     :     36.17s CPU     13.35s WALL (       6 calls)
     v_of_rho     :      2.41s CPU      1.45s WALL (       7 calls)
     newd         :      0.95s CPU      1.10s WALL (       7 calls)
     mix_rho      :      0.28s CPU      0.25s WALL (       6 calls)

     Called by c_bands:
     init_us_2    :      2.04s CPU      1.70s WALL (     182 calls)
     init_us_2:cp :      2.04s CPU      1.70s WALL (     182 calls)
     cegterg      :    181.35s CPU    142.50s WALL (      84 calls)

     Called by *egterg:
     cdiaghg      :      0.32s CPU      0.23s WALL (     368 calls)
     h_psi        :    175.96s CPU    135.55s WALL (     382 calls)
     s_psi        :      6.06s CPU     -6.61s WALL (     382 calls)
     g_psi        :      0.73s CPU      0.67s WALL (     284 calls)

     Called by h_psi:
     h_psi:calbec :      7.92s CPU      5.23s WALL (     382 calls)
     vloc_psi     :    161.16s CPU    126.19s WALL (     382 calls)
     add_vuspsi   :      5.83s CPU      3.17s WALL (     382 calls)

     General routines
     calbec       :     10.51s CPU      6.91s WALL (     466 calls)
     fft          :      1.59s CPU      1.15s WALL (      77 calls)
     ffts         :      0.11s CPU      0.08s WALL (       6 calls)
     fftw         :    147.82s CPU    123.38s WALL (    9788 calls)

     Parallel routines

     PWSCF        :   4m 5.69s CPU   2m42.34s WALL


   This run was terminated on:  12:18: 3   3Jul2025            

=------------------------------------------------------------------------------=
   JOB DONE.
=------------------------------------------------------------------------------=
