
     Program PWSCF v.7.2 starts on  3Jul2025 at 11:54: 1 

     This program is part of the open-source Quantum ESPRESSO suite
     for quantum simulation of materials; please cite
         "P. Giannozzi et al., J. Phys.:Condens. Matter 21 395502 (2009);
         "P. Giannozzi et al., J. Phys.:Condens. Matter 29 465901 (2017);
         "P. Giannozzi et al., J. Chem. Phys. 152 154105 (2020);
          URL http://www.quantum-espresso.org", 
     in publications or presentations arising from this work. More details at
     http://www.quantum-espresso.org/quote

     Parallel version (MPI & OpenMP), running on       2 processor cores
     Number of MPI processes:                 1
     Threads/MPI process:                     2

     MPI processes distributed on     1 nodes
     393 MiB available memory on the printing compute node when the environment starts

     Reading input from ../latticeparam/alpha_8_9.54.in

     Current dimensions of program PWSCF are:
     Max number of different atomic species (ntypx) = 10
     Max number of k-points (npk) =  40000
     Max angular momentum in pseudopotentials (lmaxx) =  4
     file B.pbesol-n-rrkjus_psl.1.0.0.UPF: wavefunction(s)  2S renormalized

     IMPORTANT: XC functional enforced from input :
     Exchange-correlation= PBESOL
                           (   1   4  10   8   0   0   0)
     Any further DFT definition will be discarded
     Please, verify this is what you really want


     Subspace diagonalization in iterative solution of the eigenvalue problem:
     a serial algorithm will be used


     G-vector sticks info
     --------------------
     sticks:   dense  smooth     PW     G-vecs:    dense   smooth      PW
     Sum        1765    1765    499               118997   118997   17207

     Using Slab Decomposition



     bravais-lattice index     =            4
     lattice parameter (alat)  =       9.5400  a.u.
     unit-cell volume          =    1503.8543 (a.u.)^3
     number of atoms/cell      =            8
     number of atomic types    =            1
     number of electrons       =        24.00
     number of Kohn-Sham states=           16
     kinetic-energy cutoff     =      70.0000  Ry
     charge density cutoff     =     280.0000  Ry
     scf convergence threshold =      1.0E-06
     mixing beta               =       0.7000
     number of iterations used =            8  plain     mixing
     Exchange-correlation= PBESOL
                           (   1   4  10   8   0   0   0)

     celldm(1)=   9.540000  celldm(2)=   0.000000  celldm(3)=   2.000000
     celldm(4)=   0.000000  celldm(5)=   0.000000  celldm(6)=   0.000000

     crystal axes: (cart. coord. in units of alat)
               a(1) = (   1.000000   0.000000   0.000000 )  
               a(2) = (  -0.500000   0.866025   0.000000 )  
               a(3) = (   0.000000   0.000000   2.000000 )  

     reciprocal axes: (cart. coord. in units 2 pi/alat)
               b(1) = (  1.000000  0.577350 -0.000000 )  
               b(2) = (  0.000000  1.154701  0.000000 )  
               b(3) = (  0.000000 -0.000000  0.500000 )  


     PseudoPot. # 1 for B  read from file:
     ../../pseudo/B.pbesol-n-rrkjus_psl.1.0.0.UPF
     MD5 check sum: a3839a09b1a4e02f2a06a66adc9253fc
     Pseudo is Ultrasoft + core correction, Zval =  3.0
     Generated using &quot;atomic&quot; code by A. Dal Corso  v.6.3MaX
     Using radial grid of 1059 points,  4 beta functions with: 
                l(1) =   0
                l(2) =   0
                l(3) =   1
                l(4) =   1
     Q(r) pseudized with 0 coefficients 


     atomic species   valence    mass     pseudopotential
        B              3.00    10.81100     B ( 1.00)

     24 Sym. Ops., with inversion, found



   Cartesian axes

     site n.     atom                  positions (alat units)
         1           B   tau(   1) = (   0.3333330   0.0000000   0.0000000  )
         2           B   tau(   2) = (   0.6666670   0.0000000   0.0000000  )
         3           B   tau(   3) = (  -0.1666665   0.2886748   0.0000000  )
         4           B   tau(   4) = (   0.1666665   0.2886748   0.0000000  )
         5           B   tau(   5) = (   0.5000005   0.2886748   0.0000000  )
         6           B   tau(   6) = (  -0.3333335   0.5773506   0.0000000  )
         7           B   tau(   7) = (  -0.0000005   0.5773506   0.0000000  )
         8           B   tau(   8) = (   0.3333335   0.5773506   0.0000000  )

     number of k points=    10  Marzari-Vanderbilt smearing, width (Ry)=  0.0350
                       cart. coord. in units 2pi/alat
        k(    1) = (   0.0000000   0.0000000   0.0000000), wk =   0.0312500
        k(    2) = (   0.0000000   0.1443376   0.0000000), wk =   0.1875000
        k(    3) = (   0.0000000   0.2886751   0.0000000), wk =   0.1875000
        k(    4) = (   0.0000000   0.4330127   0.0000000), wk =   0.1875000
        k(    5) = (   0.0000000  -0.5773503   0.0000000), wk =   0.0937500
        k(    6) = (   0.1250000   0.2165064   0.0000000), wk =   0.1875000
        k(    7) = (   0.1250000   0.3608439   0.0000000), wk =   0.3750000
        k(    8) = (   0.1250000   0.5051815   0.0000000), wk =   0.3750000
        k(    9) = (   0.2500000   0.4330127   0.0000000), wk =   0.1875000
        k(   10) = (   0.2500000   0.5773503   0.0000000), wk =   0.1875000

     Dense  grid:   118997 G-vectors     FFT dimensions: (  54,  54, 108)

     Estimated max dynamical RAM per process >     218.56 MB

     Initial potential from superposition of free atoms

     starting charge      23.9977, renormalised to      24.0000

     negative rho (up, down):  3.878E-05 0.000E+00
     Starting wfcs are   32 randomized atomic wfcs

     total cpu time spent up to now is        6.0 secs

     per-process dynamical memory:   123.8 Mb

     Self-consistent Calculation

     iteration #  1     ecut=    70.00 Ry     beta= 0.70
     Davidson diagonalization with overlap
     ethr =  1.00E-02,  avg # of iterations =  2.0

     negative rho (up, down):  3.651E-04 0.000E+00

     total cpu time spent up to now is       18.4 secs

     total energy              =     -49.86495602 Ry
     estimated scf accuracy    <       0.71372509 Ry

     iteration #  2     ecut=    70.00 Ry     beta= 0.70
     Davidson diagonalization with overlap
     ethr =  2.97E-03,  avg # of iterations =  2.0

     negative rho (up, down):  6.516E-04 0.000E+00

     total cpu time spent up to now is       30.0 secs

     total energy              =     -49.98136169 Ry
     estimated scf accuracy    <       0.01859630 Ry

     iteration #  3     ecut=    70.00 Ry     beta= 0.70
     Davidson diagonalization with overlap
     ethr =  7.75E-05,  avg # of iterations =  2.6

     negative rho (up, down):  7.542E-04 0.000E+00

     total cpu time spent up to now is       29.6 secs

     total energy              =     -49.98617263 Ry
     estimated scf accuracy    <       0.00479794 Ry

     iteration #  4     ecut=    70.00 Ry     beta= 0.70
     Davidson diagonalization with overlap
     ethr =  2.00E-05,  avg # of iterations =  3.7

     negative rho (up, down):  8.621E-04 0.000E+00

     total cpu time spent up to now is       42.1 secs

     total energy              =     -49.98721220 Ry
     estimated scf accuracy    <       0.00016810 Ry

     iteration #  5     ecut=    70.00 Ry     beta= 0.70
     Davidson diagonalization with overlap
     ethr =  7.00E-07,  avg # of iterations =  5.6

     negative rho (up, down):  8.718E-04 0.000E+00

     total cpu time spent up to now is       55.2 secs

     total energy              =     -49.98723216 Ry
     estimated scf accuracy    <       0.00001573 Ry

     iteration #  6     ecut=    70.00 Ry     beta= 0.70
     Davidson diagonalization with overlap
     ethr =  6.55E-08,  avg # of iterations =  3.0

     negative rho (up, down):  8.720E-04 0.000E+00

     total cpu time spent up to now is       52.3 secs

     End of self-consistent calculation

          k = 0.0000 0.0000 0.0000 ( 14889 PWs)   bands (ev):

   -16.2130 -12.0840 -12.0054 -12.0054  -9.7382  -9.7382  -7.6230  -7.0756
    -2.0791  -2.0791  -0.6190  -0.1036  -0.1036   0.2088   0.2089   0.5485

          k = 0.0000 0.1443 0.0000 ( 14904 PWs)   bands (ev):

   -16.1428 -12.8433 -12.0682 -11.3047  -9.8189  -9.5618  -7.3274  -6.9673
    -2.8125  -2.7028  -1.7280  -0.6218   0.0367   0.9063   1.0092   1.2790

          k = 0.0000 0.2887 0.0000 ( 14940 PWs)   bands (ev):

   -15.9376 -13.6039 -12.1981 -10.9283  -9.6279  -9.1114  -6.8058  -6.6476
    -3.9906  -3.6210  -3.0177  -1.1606  -0.2253   2.1158   2.3736   2.4490

          k = 0.0000 0.4330 0.0000 ( 14860 PWs)   bands (ev):

   -15.6261 -14.2628 -12.3069 -10.9632  -8.9762  -8.5687  -6.7100  -6.1468
    -4.9963  -4.1246  -4.0376  -1.4937  -0.4503   3.2148   3.4509   3.6564

          k = 0.0000-0.5774 0.0000 ( 14898 PWs)   bands (ev):

   -15.3937 -14.6135 -12.3475 -11.0100  -8.5462  -8.2800  -6.9379  -5.7361
    -5.4407  -4.7403  -4.0260  -1.6056  -0.5331   3.4433   3.8817   4.2244

          k = 0.1250 0.2165 0.0000 ( 14879 PWs)   bands (ev):

   -16.0047 -13.3929 -12.2297 -10.8362  -9.8802  -9.1944  -6.9341  -6.7529
    -3.6959  -3.3650  -2.6158  -1.3864   0.4897   1.4025   1.5840   2.1968

          k = 0.1250 0.3608 0.0000 ( 14864 PWs)   bands (ev):

   -15.7409 -14.0217 -12.4466 -10.5696  -9.5664  -8.6351  -6.7414  -6.3366
    -4.5110  -4.0260  -3.6568  -1.9775   0.4995   2.3567   2.4067   3.2005

          k = 0.1250 0.5052 0.0000 ( 14876 PWs)   bands (ev):

   -15.4152 -14.5476 -12.5755 -10.5914  -8.9220  -8.1801  -7.1539  -5.7953
    -5.0227  -4.5538  -4.1130  -2.2513   0.3808   3.1006   3.6028   3.6801

          k = 0.2500 0.4330 0.0000 ( 14821 PWs)   bands (ev):

   -15.4347 -14.4785 -12.7583  -9.9742  -9.5023  -8.1333  -7.2943  -5.8442
    -4.4494  -4.4191  -4.3363  -2.7019   1.5043   2.4064   2.6849   3.8238

          k = 0.2500 0.5774 0.0000 ( 14866 PWs)   bands (ev):

   -15.1616 -14.8045 -12.8781  -9.8374  -9.1532  -7.9235  -7.8249  -5.3848
    -4.8680  -4.6054  -4.2687  -2.9437   1.7290   2.9559   3.1319   3.2456

     the Fermi energy is    -0.5597 ev

!    total energy              =     -49.98723652 Ry
     estimated scf accuracy    <       0.00000082 Ry
     smearing contrib. (-TS)   =      -0.00038334 Ry
     internal energy E=F+TS    =     -49.98685318 Ry

     The total energy is F=E-TS. E is the sum of the following terms:
     one-electron contribution =    -179.80252095 Ry
     hartree contribution      =      94.52169118 Ry
     xc contribution           =     -23.27416116 Ry
     ewald contribution        =      58.56813775 Ry

     convergence has been achieved in   6 iterations

     Writing all to output data dir ../../outdir/borophene.save/

     init_run     :      7.75s CPU      5.89s WALL (       1 calls)
     electrons    :     90.75s CPU     46.33s WALL (       1 calls)

     Called by init_run:
     wfcinit      :      6.59s CPU      4.81s WALL (       1 calls)
     potinit      :      0.21s CPU      0.17s WALL (       1 calls)
     hinit0       :      0.78s CPU      0.72s WALL (       1 calls)

     Called by electrons:
     c_bands      :     73.59s CPU     32.13s WALL (       6 calls)
     sum_band     :     15.53s CPU     12.57s WALL (       6 calls)
     v_of_rho     :      1.21s CPU      0.99s WALL (       7 calls)
     newd         :      0.50s CPU      0.67s WALL (       7 calls)
     mix_rho      :      0.12s CPU      0.16s WALL (       6 calls)

     Called by c_bands:
     init_us_2    :      0.74s CPU      0.72s WALL (     130 calls)
     init_us_2:cp :      0.74s CPU      0.72s WALL (     130 calls)
     cegterg      :     72.23s CPU     31.00s WALL (      60 calls)

     Called by *egterg:
     cdiaghg      :      0.13s CPU      0.10s WALL (     249 calls)
     h_psi        :     72.42s CPU     31.07s WALL (     259 calls)
     s_psi        :      1.54s CPU      0.96s WALL (     259 calls)
     g_psi        :      0.20s CPU      0.19s WALL (     189 calls)

     Called by h_psi:
     h_psi:calbec :      1.81s CPU      1.80s WALL (     259 calls)
     vloc_psi     :     68.91s CPU     28.08s WALL (     259 calls)
     add_vuspsi   :      1.44s CPU      0.91s WALL (     259 calls)

     General routines
     calbec       :      2.40s CPU      2.36s WALL (     319 calls)
     fft          :      1.02s CPU      0.90s WALL (      77 calls)
     ffts         :      0.04s CPU      0.02s WALL (       6 calls)
     fftw         :     70.06s CPU     28.74s WALL (    6948 calls)

     Parallel routines

     PWSCF        :   1m38.60s CPU     52.43s WALL


   This run was terminated on:  11:54:54   3Jul2025            

=------------------------------------------------------------------------------=
   JOB DONE.
=------------------------------------------------------------------------------=
