
     Program PWSCF v.7.2 starts on  3Jul2025 at 12:11: 9 

     This program is part of the open-source Quantum ESPRESSO suite
     for quantum simulation of materials; please cite
         "P. Giannozzi et al., J. Phys.:Condens. Matter 21 395502 (2009);
         "P. Giannozzi et al., J. Phys.:Condens. Matter 29 465901 (2017);
         "P. Giannozzi et al., J. Chem. Phys. 152 154105 (2020);
          URL http://www.quantum-espresso.org", 
     in publications or presentations arising from this work. More details at
     http://www.quantum-espresso.org/quote

     Parallel version (MPI & OpenMP), running on       2 processor cores
     Number of MPI processes:                 1
     Threads/MPI process:                     2

     MPI processes distributed on     1 nodes
     370 MiB available memory on the printing compute node when the environment starts

     Reading input from ../latticeparam/alpha_9_9.62.in

     Current dimensions of program PWSCF are:
     Max number of different atomic species (ntypx) = 10
     Max number of k-points (npk) =  40000
     Max angular momentum in pseudopotentials (lmaxx) =  4
     file B.pbesol-n-rrkjus_psl.1.0.0.UPF: wavefunction(s)  2S renormalized

     IMPORTANT: XC functional enforced from input :
     Exchange-correlation= PBESOL
                           (   1   4  10   8   0   0   0)
     Any further DFT definition will be discarded
     Please, verify this is what you really want


     Subspace diagonalization in iterative solution of the eigenvalue problem:
     a serial algorithm will be used


     G-vector sticks info
     --------------------
     sticks:   dense  smooth     PW     G-vecs:    dense   smooth      PW
     Sum        1789    1789    499               122071   122071   17939

     Using Slab Decomposition



     bravais-lattice index     =            4
     lattice parameter (alat)  =       9.6200  a.u.
     unit-cell volume          =    1542.0052 (a.u.)^3
     number of atoms/cell      =            8
     number of atomic types    =            1
     number of electrons       =        24.00
     number of Kohn-Sham states=           16
     kinetic-energy cutoff     =      70.0000  Ry
     charge density cutoff     =     280.0000  Ry
     scf convergence threshold =      1.0E-06
     mixing beta               =       0.7000
     number of iterations used =            8  plain     mixing
     Exchange-correlation= PBESOL
                           (   1   4  10   8   0   0   0)

     celldm(1)=   9.620000  celldm(2)=   0.000000  celldm(3)=   2.000000
     celldm(4)=   0.000000  celldm(5)=   0.000000  celldm(6)=   0.000000

     crystal axes: (cart. coord. in units of alat)
               a(1) = (   1.000000   0.000000   0.000000 )  
               a(2) = (  -0.500000   0.866025   0.000000 )  
               a(3) = (   0.000000   0.000000   2.000000 )  

     reciprocal axes: (cart. coord. in units 2 pi/alat)
               b(1) = (  1.000000  0.577350 -0.000000 )  
               b(2) = (  0.000000  1.154701  0.000000 )  
               b(3) = (  0.000000 -0.000000  0.500000 )  


     PseudoPot. # 1 for B  read from file:
     ../../pseudo/B.pbesol-n-rrkjus_psl.1.0.0.UPF
     MD5 check sum: a3839a09b1a4e02f2a06a66adc9253fc
     Pseudo is Ultrasoft + core correction, Zval =  3.0
     Generated using &quot;atomic&quot; code by A. Dal Corso  v.6.3MaX
     Using radial grid of 1059 points,  4 beta functions with: 
                l(1) =   0
                l(2) =   0
                l(3) =   1
                l(4) =   1
     Q(r) pseudized with 0 coefficients 


     atomic species   valence    mass     pseudopotential
        B              3.00    10.81100     B ( 1.00)

     24 Sym. Ops., with inversion, found



   Cartesian axes

     site n.     atom                  positions (alat units)
         1           B   tau(   1) = (   0.3333330   0.0000000   0.0000000  )
         2           B   tau(   2) = (   0.6666670   0.0000000   0.0000000  )
         3           B   tau(   3) = (  -0.1666665   0.2886748   0.0000000  )
         4           B   tau(   4) = (   0.1666665   0.2886748   0.0000000  )
         5           B   tau(   5) = (   0.5000005   0.2886748   0.0000000  )
         6           B   tau(   6) = (  -0.3333335   0.5773506   0.0000000  )
         7           B   tau(   7) = (  -0.0000005   0.5773506   0.0000000  )
         8           B   tau(   8) = (   0.3333335   0.5773506   0.0000000  )

     number of k points=    12  Marzari-Vanderbilt smearing, width (Ry)=  0.0350
                       cart. coord. in units 2pi/alat
        k(    1) = (   0.0000000   0.0000000   0.0000000), wk =   0.0246914
        k(    2) = (   0.0000000   0.1283001   0.0000000), wk =   0.1481481
        k(    3) = (   0.0000000   0.2566001   0.0000000), wk =   0.1481481
        k(    4) = (   0.0000000   0.3849002   0.0000000), wk =   0.1481481
        k(    5) = (   0.0000000   0.5132002   0.0000000), wk =   0.1481481
        k(    6) = (   0.1111111   0.1924501   0.0000000), wk =   0.1481481
        k(    7) = (   0.1111111   0.3207501   0.0000000), wk =   0.2962963
        k(    8) = (   0.1111111   0.4490502   0.0000000), wk =   0.2962963
        k(    9) = (   0.1111111   0.5773503   0.0000000), wk =   0.1481481
        k(   10) = (   0.2222222   0.3849002   0.0000000), wk =   0.1481481
        k(   11) = (   0.2222222   0.5132002   0.0000000), wk =   0.2962963
        k(   12) = (   0.3333333   0.5773503   0.0000000), wk =   0.0493827

     Dense  grid:   122071 G-vectors     FFT dimensions: (  54,  54, 108)

     Estimated max dynamical RAM per process >     231.05 MB

     Initial potential from superposition of free atoms

     starting charge      23.9977, renormalised to      24.0000

     negative rho (up, down):  4.797E-05 0.000E+00
     Starting wfcs are   32 randomized atomic wfcs

     total cpu time spent up to now is       10.8 secs

     per-process dynamical memory:   133.6 Mb

     Self-consistent Calculation

     iteration #  1     ecut=    70.00 Ry     beta= 0.70
     Davidson diagonalization with overlap
     ethr =  1.00E-02,  avg # of iterations =  2.0

     negative rho (up, down):  3.710E-04 0.000E+00

     total cpu time spent up to now is       30.8 secs

     total energy              =     -49.87429914 Ry
     estimated scf accuracy    <       0.66405351 Ry

     iteration #  2     ecut=    70.00 Ry     beta= 0.70
     Davidson diagonalization with overlap
     ethr =  2.77E-03,  avg # of iterations =  2.0

     negative rho (up, down):  6.414E-04 0.000E+00

     total cpu time spent up to now is       36.0 secs

     total energy              =     -49.98231380 Ry
     estimated scf accuracy    <       0.01697896 Ry

     iteration #  3     ecut=    70.00 Ry     beta= 0.70
     Davidson diagonalization with overlap
     ethr =  7.07E-05,  avg # of iterations =  3.4

     negative rho (up, down):  7.370E-04 0.000E+00

     total cpu time spent up to now is       57.4 secs

     total energy              =     -49.98663256 Ry
     estimated scf accuracy    <       0.00451483 Ry

     iteration #  4     ecut=    70.00 Ry     beta= 0.70
     Davidson diagonalization with overlap
     ethr =  1.88E-05,  avg # of iterations =  3.8

     negative rho (up, down):  8.376E-04 0.000E+00

     total cpu time spent up to now is       65.0 secs

     total energy              =     -49.98761491 Ry
     estimated scf accuracy    <       0.00016396 Ry

     iteration #  5     ecut=    70.00 Ry     beta= 0.70
     Davidson diagonalization with overlap
     ethr =  6.83E-07,  avg # of iterations =  6.4

     negative rho (up, down):  8.465E-04 0.000E+00

     total cpu time spent up to now is       77.7 secs

     total energy              =     -49.98763482 Ry
     estimated scf accuracy    <       0.00001507 Ry

     iteration #  6     ecut=    70.00 Ry     beta= 0.70
     Davidson diagonalization with overlap
     ethr =  6.28E-08,  avg # of iterations =  2.8

     negative rho (up, down):  8.469E-04 0.000E+00

     total cpu time spent up to now is       97.0 secs

     End of self-consistent calculation

          k = 0.0000 0.0000 0.0000 ( 15237 PWs)   bands (ev):

   -16.1775 -12.0836 -12.0007 -12.0007  -9.7776  -9.7775  -7.6384  -7.0488
    -2.2004  -2.2004  -0.7142  -0.2043  -0.2042   0.0379   0.0379   0.4319

          k = 0.0000 0.1283 0.0000 ( 15248 PWs)   bands (ev):

   -16.1226 -12.7486 -12.0525 -11.3800  -9.8424  -9.6359  -7.4032  -6.9647
    -2.8039  -2.7126  -1.6543  -0.6449  -0.0498   0.6011   0.6892   1.0368

          k = 0.0000 0.2566 0.0000 ( 15244 PWs)   bands (ev):

   -15.9608 -13.4293 -12.1670 -10.9728  -9.7442  -9.2636  -6.9331  -6.7155
    -3.8379  -3.5491  -2.7953  -1.1412  -0.2623   1.6317   1.8573   2.0224

          k = 0.0000 0.3849 0.0000 ( 15260 PWs)   bands (ev):

   -15.7067 -14.0441 -12.2767 -10.9505  -9.2239  -8.7779  -6.6936  -6.3158
    -4.7991  -4.0786  -3.8169  -1.4841  -0.4805   2.6437   3.0184   3.1685

          k = 0.0000 0.5132 0.0000 ( 15270 PWs)   bands (ev):

   -15.4272 -14.5084 -12.3400 -11.0126  -8.6647  -8.3754  -6.8977  -5.8477
    -5.4426  -4.6017  -4.1357  -1.6573  -0.6052   3.1793   3.5597   3.7904

          k = 0.1111 0.1925 0.0000 ( 15259 PWs)   bands (ev):

   -16.0140 -13.2417 -12.1797 -10.9561  -9.9039  -9.3391  -7.0588  -6.7979
    -3.5838  -3.2978  -2.4460  -1.2936   0.3017   1.1723   1.1969   1.6769

          k = 0.1111 0.3208 0.0000 ( 15255 PWs)   bands (ev):

   -15.8040 -13.8166 -12.3654 -10.6640  -9.7060  -8.8552  -6.7543  -6.4712
    -4.4110  -3.9603  -3.3891  -1.8416   0.3056   1.9476   1.9639   2.9831

          k = 0.1111 0.4491 0.0000 ( 15250 PWs)   bands (ev):

   -15.5197 -14.3411 -12.5025 -10.6650  -9.1380  -8.3770  -6.9491  -6.0148
    -4.9964  -4.2646  -4.2136  -2.1497   0.1715   2.6382   3.0944   3.4985

          k = 0.1111 0.5774 0.0000 ( 15256 PWs)   bands (ev):

   -15.3210 -14.6230 -12.5514 -10.6895  -8.7638  -8.1546  -7.2543  -5.6664
    -5.2570  -4.7588  -4.1705  -2.2495   0.1164   3.0535   3.1051   4.0593

          k = 0.2222 0.3849 0.0000 ( 15255 PWs)   bands (ev):

   -15.5549 -14.2515 -12.6432 -10.1772  -9.6511  -8.3570  -7.0159  -6.0777
    -4.5916  -4.3830  -4.0401  -2.5165   1.0937   2.0344   2.2576   3.4146

          k = 0.2222 0.5132 0.0000 ( 15251 PWs)   bands (ev):

   -15.2607 -14.6476 -12.8071 -10.0348  -9.2116  -8.0227  -7.6128  -5.5960
    -4.7500  -4.6780  -4.3502  -2.8457   1.2865   2.5800   2.8669   3.1462

          k = 0.3333 0.5774 0.0000 ( 15201 PWs)   bands (ev):

   -14.9591 -14.9591 -12.9302  -9.4490  -9.4490  -8.0283  -7.8944  -5.1219
    -5.1218  -4.4960  -4.4960  -3.1158   2.3705   2.3705   2.7305   2.7305

     the Fermi energy is    -0.6570 ev

!    total energy              =     -49.98763896 Ry
     estimated scf accuracy    <       0.00000084 Ry
     smearing contrib. (-TS)   =       0.00025492 Ry
     internal energy E=F+TS    =     -49.98789388 Ry

     The total energy is F=E-TS. E is the sum of the following terms:
     one-electron contribution =    -178.87498192 Ry
     hartree contribution      =      93.95439701 Ry
     xc contribution           =     -23.14839359 Ry
     ewald contribution        =      58.08108463 Ry

     convergence has been achieved in   6 iterations

     Writing all to output data dir ../../outdir/borophene.save/

     init_run     :     17.53s CPU     10.62s WALL (       1 calls)
     electrons    :    193.60s CPU     86.28s WALL (       1 calls)

     Called by init_run:
     wfcinit      :     15.69s CPU      9.05s WALL (       1 calls)
     potinit      :      0.43s CPU      0.26s WALL (       1 calls)
     hinit0       :      1.12s CPU      0.95s WALL (       1 calls)

     Called by electrons:
     c_bands      :    158.74s CPU     75.66s WALL (       6 calls)
     sum_band     :     31.55s CPU      8.12s WALL (       6 calls)
     v_of_rho     :      2.52s CPU      1.43s WALL (       7 calls)
     newd         :      0.97s CPU      1.16s WALL (       7 calls)
     mix_rho      :      0.27s CPU      0.23s WALL (       6 calls)

     Called by c_bands:
     init_us_2    :      1.98s CPU      1.51s WALL (     156 calls)
     init_us_2:cp :      1.98s CPU      1.51s WALL (     156 calls)
     cegterg      :    154.98s CPU     72.86s WALL (      72 calls)

     Called by *egterg:
     cdiaghg      :      0.28s CPU      0.20s WALL (     318 calls)
     h_psi        :    150.05s CPU     68.28s WALL (     330 calls)
     s_psi        :      5.25s CPU      3.20s WALL (     330 calls)
     g_psi        :      0.54s CPU      0.52s WALL (     246 calls)

     Called by h_psi:
     h_psi:calbec :      6.92s CPU      4.70s WALL (     330 calls)
     vloc_psi     :    137.23s CPU     59.99s WALL (     330 calls)
     add_vuspsi   :      5.12s CPU      2.82s WALL (     330 calls)

     General routines
     calbec       :      9.13s CPU      6.21s WALL (     402 calls)
     fft          :      1.57s CPU      1.08s WALL (      77 calls)
     ffts         :      0.09s CPU      0.07s WALL (       6 calls)
     fftw         :    126.49s CPU     56.52s WALL (    8354 calls)

     Parallel routines

     PWSCF        :   3m31.37s CPU   1m37.39s WALL


   This run was terminated on:  12:12:47   3Jul2025            

=------------------------------------------------------------------------------=
   JOB DONE.
=------------------------------------------------------------------------------=
