
     Program PWSCF v.7.2 starts on  3Jul2025 at 11:59:11 

     This program is part of the open-source Quantum ESPRESSO suite
     for quantum simulation of materials; please cite
         "P. Giannozzi et al., J. Phys.:Condens. Matter 21 395502 (2009);
         "P. Giannozzi et al., J. Phys.:Condens. Matter 29 465901 (2017);
         "P. Giannozzi et al., J. Chem. Phys. 152 154105 (2020);
          URL http://www.quantum-espresso.org", 
     in publications or presentations arising from this work. More details at
     http://www.quantum-espresso.org/quote

     Parallel version (MPI & OpenMP), running on       2 processor cores
     Number of MPI processes:                 1
     Threads/MPI process:                     2

     MPI processes distributed on     1 nodes
     376 MiB available memory on the printing compute node when the environment starts

     Reading input from ../latticeparam/alpha_8_9.62.in

     Current dimensions of program PWSCF are:
     Max number of different atomic species (ntypx) = 10
     Max number of k-points (npk) =  40000
     Max angular momentum in pseudopotentials (lmaxx) =  4
     file B.pbesol-n-rrkjus_psl.1.0.0.UPF: wavefunction(s)  2S renormalized

     IMPORTANT: XC functional enforced from input :
     Exchange-correlation= PBESOL
                           (   1   4  10   8   0   0   0)
     Any further DFT definition will be discarded
     Please, verify this is what you really want


     Subspace diagonalization in iterative solution of the eigenvalue problem:
     a serial algorithm will be used


     G-vector sticks info
     --------------------
     sticks:   dense  smooth     PW     G-vecs:    dense   smooth      PW
     Sum        1789    1789    499               122071   122071   17639

     Using Slab Decomposition



     bravais-lattice index     =            4
     lattice parameter (alat)  =       9.6200  a.u.
     unit-cell volume          =    1542.0052 (a.u.)^3
     number of atoms/cell      =            8
     number of atomic types    =            1
     number of electrons       =        24.00
     number of Kohn-Sham states=           16
     kinetic-energy cutoff     =      70.0000  Ry
     charge density cutoff     =     280.0000  Ry
     scf convergence threshold =      1.0E-06
     mixing beta               =       0.7000
     number of iterations used =            8  plain     mixing
     Exchange-correlation= PBESOL
                           (   1   4  10   8   0   0   0)

     celldm(1)=   9.620000  celldm(2)=   0.000000  celldm(3)=   2.000000
     celldm(4)=   0.000000  celldm(5)=   0.000000  celldm(6)=   0.000000

     crystal axes: (cart. coord. in units of alat)
               a(1) = (   1.000000   0.000000   0.000000 )  
               a(2) = (  -0.500000   0.866025   0.000000 )  
               a(3) = (   0.000000   0.000000   2.000000 )  

     reciprocal axes: (cart. coord. in units 2 pi/alat)
               b(1) = (  1.000000  0.577350 -0.000000 )  
               b(2) = (  0.000000  1.154701  0.000000 )  
               b(3) = (  0.000000 -0.000000  0.500000 )  


     PseudoPot. # 1 for B  read from file:
     ../../pseudo/B.pbesol-n-rrkjus_psl.1.0.0.UPF
     MD5 check sum: a3839a09b1a4e02f2a06a66adc9253fc
     Pseudo is Ultrasoft + core correction, Zval =  3.0
     Generated using &quot;atomic&quot; code by A. Dal Corso  v.6.3MaX
     Using radial grid of 1059 points,  4 beta functions with: 
                l(1) =   0
                l(2) =   0
                l(3) =   1
                l(4) =   1
     Q(r) pseudized with 0 coefficients 


     atomic species   valence    mass     pseudopotential
        B              3.00    10.81100     B ( 1.00)

     24 Sym. Ops., with inversion, found



   Cartesian axes

     site n.     atom                  positions (alat units)
         1           B   tau(   1) = (   0.3333330   0.0000000   0.0000000  )
         2           B   tau(   2) = (   0.6666670   0.0000000   0.0000000  )
         3           B   tau(   3) = (  -0.1666665   0.2886748   0.0000000  )
         4           B   tau(   4) = (   0.1666665   0.2886748   0.0000000  )
         5           B   tau(   5) = (   0.5000005   0.2886748   0.0000000  )
         6           B   tau(   6) = (  -0.3333335   0.5773506   0.0000000  )
         7           B   tau(   7) = (  -0.0000005   0.5773506   0.0000000  )
         8           B   tau(   8) = (   0.3333335   0.5773506   0.0000000  )

     number of k points=    10  Marzari-Vanderbilt smearing, width (Ry)=  0.0350
                       cart. coord. in units 2pi/alat
        k(    1) = (   0.0000000   0.0000000   0.0000000), wk =   0.0312500
        k(    2) = (   0.0000000   0.1443376   0.0000000), wk =   0.1875000
        k(    3) = (   0.0000000   0.2886751   0.0000000), wk =   0.1875000
        k(    4) = (   0.0000000   0.4330127   0.0000000), wk =   0.1875000
        k(    5) = (   0.0000000  -0.5773503   0.0000000), wk =   0.0937500
        k(    6) = (   0.1250000   0.2165064   0.0000000), wk =   0.1875000
        k(    7) = (   0.1250000   0.3608439   0.0000000), wk =   0.3750000
        k(    8) = (   0.1250000   0.5051815   0.0000000), wk =   0.3750000
        k(    9) = (   0.2500000   0.4330127   0.0000000), wk =   0.1875000
        k(   10) = (   0.2500000   0.5773503   0.0000000), wk =   0.1875000

     Dense  grid:   122071 G-vectors     FFT dimensions: (  54,  54, 108)

     Estimated max dynamical RAM per process >     223.61 MB

     Initial potential from superposition of free atoms

     starting charge      23.9977, renormalised to      24.0000

     negative rho (up, down):  4.797E-05 0.000E+00
     Starting wfcs are   32 randomized atomic wfcs

     total cpu time spent up to now is        5.5 secs

     per-process dynamical memory:   125.7 Mb

     Self-consistent Calculation

     iteration #  1     ecut=    70.00 Ry     beta= 0.70
     Davidson diagonalization with overlap
     ethr =  1.00E-02,  avg # of iterations =  2.0

     negative rho (up, down):  3.702E-04 0.000E+00

     total cpu time spent up to now is       15.8 secs

     total energy              =     -49.87418399 Ry
     estimated scf accuracy    <       0.66413608 Ry

     iteration #  2     ecut=    70.00 Ry     beta= 0.70
     Davidson diagonalization with overlap
     ethr =  2.77E-03,  avg # of iterations =  2.0

     negative rho (up, down):  6.410E-04 0.000E+00

     total cpu time spent up to now is       14.2 secs

     total energy              =     -49.98213363 Ry
     estimated scf accuracy    <       0.01678102 Ry

     iteration #  3     ecut=    70.00 Ry     beta= 0.70
     Davidson diagonalization with overlap
     ethr =  6.99E-05,  avg # of iterations =  2.9

     negative rho (up, down):  7.368E-04 0.000E+00

     total cpu time spent up to now is       26.2 secs

     total energy              =     -49.98639220 Ry
     estimated scf accuracy    <       0.00449580 Ry

     iteration #  4     ecut=    70.00 Ry     beta= 0.70
     Davidson diagonalization with overlap
     ethr =  1.87E-05,  avg # of iterations =  3.8

     negative rho (up, down):  8.365E-04 0.000E+00

     total cpu time spent up to now is       38.9 secs

     total energy              =     -49.98737301 Ry
     estimated scf accuracy    <       0.00016505 Ry

     iteration #  5     ecut=    70.00 Ry     beta= 0.70
     Davidson diagonalization with overlap
     ethr =  6.88E-07,  avg # of iterations =  5.1

     negative rho (up, down):  8.465E-04 0.000E+00

     total cpu time spent up to now is       43.0 secs

     total energy              =     -49.98739230 Ry
     estimated scf accuracy    <       0.00001356 Ry

     iteration #  6     ecut=    70.00 Ry     beta= 0.70
     Davidson diagonalization with overlap
     ethr =  5.65E-08,  avg # of iterations =  2.8

     negative rho (up, down):  8.469E-04 0.000E+00

     total cpu time spent up to now is       54.7 secs

     End of self-consistent calculation

          k = 0.0000 0.0000 0.0000 ( 15237 PWs)   bands (ev):

   -16.1781 -12.0840 -12.0013 -12.0013  -9.7779  -9.7779  -7.6387  -7.0491
    -2.2010  -2.2010  -0.7145  -0.2048  -0.2047   0.0376   0.0376   0.4316

          k = 0.0000 0.1443 0.0000 ( 15240 PWs)   bands (ev):

   -16.1086 -12.8363 -12.0655 -11.3090  -9.8503  -9.6004  -7.3491  -6.9428
    -2.9275  -2.8177  -1.8004  -0.7140  -0.0687   0.7198   0.8244   1.1486

          k = 0.0000 0.2887 0.0000 ( 15276 PWs)   bands (ev):

   -15.9054 -13.5916 -12.1976 -10.9413  -9.6456  -9.1476  -6.8325  -6.6290
    -4.0946  -3.7277  -3.0654  -1.2428  -0.3224   1.8959   2.1576   2.2952

          k = 0.0000 0.4330 0.0000 ( 15274 PWs)   bands (ev):

   -15.5971 -14.2453 -12.3078 -10.9770  -8.9914  -8.6019  -6.7375  -6.1375
    -5.0944  -4.1513  -4.1390  -1.5697  -0.5411   2.9573   3.3678   3.4008

          k = 0.0000-0.5774 0.0000 ( 15266 PWs)   bands (ev):

   -15.3671 -14.5928 -12.3489 -11.0230  -8.5616  -8.3103  -6.9673  -5.7350
    -5.5388  -4.7550  -4.1230  -1.6795  -0.6216   3.1296   3.6283   4.0440

          k = 0.1250 0.2165 0.0000 ( 15255 PWs)   bands (ev):

   -15.9719 -13.3822 -12.2284 -10.8467  -9.9043  -9.2287  -6.9603  -6.7324
    -3.8055  -3.4699  -2.6715  -1.4624   0.3737   1.2754   1.3711   1.9929

          k = 0.1250 0.3608 0.0000 ( 15245 PWs)   bands (ev):

   -15.7107 -14.0064 -12.4457 -10.5862  -9.5860  -8.6638  -6.7693  -6.3238
    -4.6124  -4.1252  -3.6929  -2.0417   0.3862   2.1557   2.2091   3.1317

          k = 0.1250 0.5052 0.0000 ( 15251 PWs)   bands (ev):

   -15.3884 -14.5278 -12.5743 -10.6083  -8.9442  -8.2038  -7.1861  -5.7928
    -5.1161  -4.5727  -4.2088  -2.3102   0.2715   2.8120   3.2934   3.5020

          k = 0.2500 0.4330 0.0000 ( 15269 PWs)   bands (ev):

   -15.4076 -14.4597 -12.7551  -9.9970  -9.5234  -8.1552  -7.3264  -5.8406
    -4.5437  -4.5113  -4.3605  -2.7508   1.3684   2.2599   2.3985   3.5010

          k = 0.2500 0.5774 0.0000 ( 15217 PWs)   bands (ev):

   -15.1371 -14.7830 -12.8737  -9.8608  -9.1789  -7.9424  -7.8559  -5.3900
    -4.8821  -4.6961  -4.3599  -2.9876   1.5907   2.6515   2.9290   2.9629

     the Fermi energy is    -0.6545 ev

!    total energy              =     -49.98739603 Ry
     estimated scf accuracy    <       0.00000035 Ry
     smearing contrib. (-TS)   =      -0.00026772 Ry
     internal energy E=F+TS    =     -49.98712831 Ry

     The total energy is F=E-TS. E is the sum of the following terms:
     one-electron contribution =    -178.87430129 Ry
     hartree contribution      =      93.95453312 Ry
     xc contribution           =     -23.14844477 Ry
     ewald contribution        =      58.08108463 Ry

     convergence has been achieved in   6 iterations

     Writing all to output data dir ../../outdir/borophene.save/

     init_run     :      7.37s CPU      5.47s WALL (       1 calls)
     electrons    :     90.89s CPU     49.19s WALL (       1 calls)

     Called by init_run:
     wfcinit      :      6.14s CPU      4.27s WALL (       1 calls)
     potinit      :      0.20s CPU      0.15s WALL (       1 calls)
     hinit0       :      0.89s CPU      0.84s WALL (       1 calls)

     Called by electrons:
     c_bands      :     73.13s CPU     58.12s WALL (       6 calls)
     sum_band     :     16.21s CPU    -10.43s WALL (       6 calls)
     v_of_rho     :      1.14s CPU      0.89s WALL (       7 calls)
     newd         :      0.44s CPU      0.64s WALL (       7 calls)
     mix_rho      :      0.15s CPU      0.14s WALL (       6 calls)

     Called by c_bands:
     init_us_2    :      0.79s CPU      0.75s WALL (     130 calls)
     init_us_2:cp :      0.79s CPU      0.75s WALL (     130 calls)
     cegterg      :     71.86s CPU     56.96s WALL (      60 calls)

     Called by *egterg:
     cdiaghg      :      0.14s CPU      0.11s WALL (     246 calls)
     h_psi        :     71.30s CPU     56.42s WALL (     256 calls)
     s_psi        :      1.58s CPU      0.98s WALL (     256 calls)
     g_psi        :      0.21s CPU      0.19s WALL (     186 calls)

     Called by h_psi:
     h_psi:calbec :      1.87s CPU      1.82s WALL (     256 calls)
     vloc_psi     :     67.71s CPU     53.42s WALL (     256 calls)
     add_vuspsi   :      1.51s CPU      0.93s WALL (     256 calls)

     General routines
     calbec       :      2.54s CPU      2.38s WALL (     316 calls)
     fft          :      1.09s CPU      1.00s WALL (      77 calls)
     ffts         :      0.05s CPU      0.03s WALL (       6 calls)
     fftw         :     68.87s CPU     42.21s WALL (    6896 calls)

     Parallel routines

     PWSCF        :   1m38.34s CPU     54.95s WALL


   This run was terminated on:  12: 0: 6   3Jul2025            

=------------------------------------------------------------------------------=
   JOB DONE.
=------------------------------------------------------------------------------=
