
     Program PWSCF v.7.2 starts on  3Jul2025 at 11:45: 2 

     This program is part of the open-source Quantum ESPRESSO suite
     for quantum simulation of materials; please cite
         "P. Giannozzi et al., J. Phys.:Condens. Matter 21 395502 (2009);
         "P. Giannozzi et al., J. Phys.:Condens. Matter 29 465901 (2017);
         "P. Giannozzi et al., J. Chem. Phys. 152 154105 (2020);
          URL http://www.quantum-espresso.org", 
     in publications or presentations arising from this work. More details at
     http://www.quantum-espresso.org/quote

     Parallel version (MPI & OpenMP), running on       2 processor cores
     Number of MPI processes:                 1
     Threads/MPI process:                     2

     MPI processes distributed on     1 nodes
     277 MiB available memory on the printing compute node when the environment starts

     Reading input from ../latticeparam/alpha_7_9.52.in

     Current dimensions of program PWSCF are:
     Max number of different atomic species (ntypx) = 10
     Max number of k-points (npk) =  40000
     Max angular momentum in pseudopotentials (lmaxx) =  4
     file B.pbesol-n-rrkjus_psl.1.0.0.UPF: wavefunction(s)  2S renormalized

     IMPORTANT: XC functional enforced from input :
     Exchange-correlation= PBESOL
                           (   1   4  10   8   0   0   0)
     Any further DFT definition will be discarded
     Please, verify this is what you really want


     Subspace diagonalization in iterative solution of the eigenvalue problem:
     a serial algorithm will be used


     G-vector sticks info
     --------------------
     sticks:   dense  smooth     PW     G-vecs:    dense   smooth      PW
     Sum        1759    1759    475               118475   118475   16979

     Using Slab Decomposition



     bravais-lattice index     =            4
     lattice parameter (alat)  =       9.5200  a.u.
     unit-cell volume          =    1494.4159 (a.u.)^3
     number of atoms/cell      =            8
     number of atomic types    =            1
     number of electrons       =        24.00
     number of Kohn-Sham states=           16
     kinetic-energy cutoff     =      70.0000  Ry
     charge density cutoff     =     280.0000  Ry
     scf convergence threshold =      1.0E-06
     mixing beta               =       0.7000
     number of iterations used =            8  plain     mixing
     Exchange-correlation= PBESOL
                           (   1   4  10   8   0   0   0)

     celldm(1)=   9.520000  celldm(2)=   0.000000  celldm(3)=   2.000000
     celldm(4)=   0.000000  celldm(5)=   0.000000  celldm(6)=   0.000000

     crystal axes: (cart. coord. in units of alat)
               a(1) = (   1.000000   0.000000   0.000000 )  
               a(2) = (  -0.500000   0.866025   0.000000 )  
               a(3) = (   0.000000   0.000000   2.000000 )  

     reciprocal axes: (cart. coord. in units 2 pi/alat)
               b(1) = (  1.000000  0.577350 -0.000000 )  
               b(2) = (  0.000000  1.154701  0.000000 )  
               b(3) = (  0.000000 -0.000000  0.500000 )  


     PseudoPot. # 1 for B  read from file:
     ../../pseudo/B.pbesol-n-rrkjus_psl.1.0.0.UPF
     MD5 check sum: a3839a09b1a4e02f2a06a66adc9253fc
     Pseudo is Ultrasoft + core correction, Zval =  3.0
     Generated using &quot;atomic&quot; code by A. Dal Corso  v.6.3MaX
     Using radial grid of 1059 points,  4 beta functions with: 
                l(1) =   0
                l(2) =   0
                l(3) =   1
                l(4) =   1
     Q(r) pseudized with 0 coefficients 


     atomic species   valence    mass     pseudopotential
        B              3.00    10.81100     B ( 1.00)

     24 Sym. Ops., with inversion, found



   Cartesian axes

     site n.     atom                  positions (alat units)
         1           B   tau(   1) = (   0.3333330   0.0000000   0.0000000  )
         2           B   tau(   2) = (   0.6666670   0.0000000   0.0000000  )
         3           B   tau(   3) = (  -0.1666665   0.2886748   0.0000000  )
         4           B   tau(   4) = (   0.1666665   0.2886748   0.0000000  )
         5           B   tau(   5) = (   0.5000005   0.2886748   0.0000000  )
         6           B   tau(   6) = (  -0.3333335   0.5773506   0.0000000  )
         7           B   tau(   7) = (  -0.0000005   0.5773506   0.0000000  )
         8           B   tau(   8) = (   0.3333335   0.5773506   0.0000000  )

     number of k points=     8  Marzari-Vanderbilt smearing, width (Ry)=  0.0350
                       cart. coord. in units 2pi/alat
        k(    1) = (   0.0000000   0.0000000   0.0000000), wk =   0.0408163
        k(    2) = (   0.0000000   0.1649572   0.0000000), wk =   0.2448980
        k(    3) = (   0.0000000   0.3299144   0.0000000), wk =   0.2448980
        k(    4) = (   0.0000000   0.4948717   0.0000000), wk =   0.2448980
        k(    5) = (   0.1428571   0.2474358   0.0000000), wk =   0.2448980
        k(    6) = (   0.1428571   0.4123930   0.0000000), wk =   0.4897959
        k(    7) = (   0.1428571   0.5773503   0.0000000), wk =   0.2448980
        k(    8) = (   0.2857143   0.4948717   0.0000000), wk =   0.2448980

     Dense  grid:   118475 G-vectors     FFT dimensions: (  54,  54, 108)

     Estimated max dynamical RAM per process >     210.38 MB

     Initial potential from superposition of free atoms

     starting charge      23.9977, renormalised to      24.0000

     negative rho (up, down):  3.439E-05 0.000E+00
     Starting wfcs are   32 randomized atomic wfcs

     total cpu time spent up to now is        4.5 secs

     per-process dynamical memory:   115.4 Mb

     Self-consistent Calculation

     iteration #  1     ecut=    70.00 Ry     beta= 0.70
     Davidson diagonalization with overlap
     ethr =  1.00E-02,  avg # of iterations =  2.0

     negative rho (up, down):  3.638E-04 0.000E+00

     total cpu time spent up to now is       12.9 secs

     total energy              =     -49.86138792 Ry
     estimated scf accuracy    <       0.72690040 Ry

     iteration #  2     ecut=    70.00 Ry     beta= 0.70
     Davidson diagonalization with overlap
     ethr =  3.03E-03,  avg # of iterations =  2.0

     negative rho (up, down):  6.420E-04 0.000E+00

     total cpu time spent up to now is       21.6 secs

     total energy              =     -49.97981598 Ry
     estimated scf accuracy    <       0.01907849 Ry

     iteration #  3     ecut=    70.00 Ry     beta= 0.70
     Davidson diagonalization with overlap
     ethr =  7.95E-05,  avg # of iterations =  4.5

     negative rho (up, down):  7.463E-04 0.000E+00

     total cpu time spent up to now is       31.5 secs

     total energy              =     -49.98472516 Ry
     estimated scf accuracy    <       0.00507868 Ry

     iteration #  4     ecut=    70.00 Ry     beta= 0.70
     Davidson diagonalization with overlap
     ethr =  2.12E-05,  avg # of iterations =  3.2

     negative rho (up, down):  8.590E-04 0.000E+00

     total cpu time spent up to now is       41.4 secs

     total energy              =     -49.98583172 Ry
     estimated scf accuracy    <       0.00017231 Ry

     iteration #  5     ecut=    70.00 Ry     beta= 0.70
     Davidson diagonalization with overlap
     ethr =  7.18E-07,  avg # of iterations =  3.6

     negative rho (up, down):  8.689E-04 0.000E+00

     total cpu time spent up to now is       40.4 secs

     total energy              =     -49.98585288 Ry
     estimated scf accuracy    <       0.00001711 Ry

     iteration #  6     ecut=    70.00 Ry     beta= 0.70
     Davidson diagonalization with overlap
     ethr =  7.13E-08,  avg # of iterations =  3.0

     negative rho (up, down):  8.691E-04 0.000E+00

     total cpu time spent up to now is       48.8 secs

     End of self-consistent calculation

          k = 0.0000 0.0000 0.0000 ( 14787 PWs)   bands (ev):

   -16.2211 -12.0833 -12.0057 -12.0056  -9.7275  -9.7274  -7.6187  -7.0820
    -2.0474  -2.0474  -0.5946  -0.0774  -0.0774   0.2527   0.2528   0.5787

          k = 0.0000 0.1650 0.0000 ( 14804 PWs)   bands (ev):

   -16.1293 -12.9567 -12.0849 -11.2160  -9.8172  -9.5005  -7.2457  -6.9400
    -2.9481  -2.8125  -1.9009  -0.6861   0.0330   1.1189   1.2425   1.4659

          k = 0.0000 0.3299 0.0000 ( 14822 PWs)   bands (ev):

   -15.8640 -13.8090 -12.2334 -10.9139  -9.4607  -8.9456  -6.7033  -6.5238
    -4.2830  -3.7834  -3.3471  -1.2572  -0.2760   2.5181   2.8217   2.8629

          k = 0.0000 0.4949 0.0000 ( 14776 PWs)   bands (ev):

   -15.4953 -14.4834 -12.3329 -10.9894  -8.7064  -8.3760  -6.8246  -5.9137
    -5.2597  -4.4910  -4.0176  -1.5497  -0.4827   3.5461   3.7941   3.9127

          k = 0.1429 0.2474 0.0000 ( 14769 PWs)   bands (ev):

   -15.9498 -13.5713 -12.2977 -10.6965  -9.8622  -9.0328  -6.8186  -6.6600
    -3.9314  -3.5511  -2.8871  -1.5850   0.6260   1.5713   1.8607   2.6807

          k = 0.1429 0.4124 0.0000 ( 14773 PWs)   bands (ev):

   -15.6152 -14.2530 -12.5478 -10.4713  -9.3805  -8.3969  -6.8796  -6.1256
    -4.6602  -4.1282  -4.0169  -2.2000   0.6551   2.7132   2.7315   3.4705

          k = 0.1429 0.5774 0.0000 ( 14764 PWs)   bands (ev):

   -15.3234 -14.6710 -12.6424 -10.4930  -8.8223  -8.0700  -7.3533  -5.6207
    -5.0061  -4.7480  -4.0840  -2.3887   0.5796   3.2733   3.4805   4.0343

          k = 0.2857 0.4949 0.0000 ( 14759 PWs)   bands (ev):

   -15.2412 -14.7222 -12.8721  -9.7316  -9.3508  -7.9513  -7.7085  -5.5172
    -4.7014  -4.4563  -4.3521  -2.9272   1.9468   2.7025   2.9156   3.4849

     the Fermi energy is    -0.5346 ev

!    total energy              =     -49.98585766 Ry
     estimated scf accuracy    <       0.00000075 Ry
     smearing contrib. (-TS)   =      -0.00131272 Ry
     internal energy E=F+TS    =     -49.98454494 Ry

     The total energy is F=E-TS. E is the sum of the following terms:
     one-electron contribution =    -180.03541350 Ry
     hartree contribution      =      94.66582491 Ry
     xc contribution           =     -23.30613641 Ry
     ewald contribution        =      58.69118006 Ry

     convergence has been achieved in   6 iterations

     Writing all to output data dir ../../outdir/borophene.save/

     init_run     :      6.10s CPU      4.45s WALL (       1 calls)
     electrons    :     69.53s CPU     44.30s WALL (       1 calls)

     Called by init_run:
     wfcinit      :      5.07s CPU      3.53s WALL (       1 calls)
     potinit      :      0.19s CPU      0.14s WALL (       1 calls)
     hinit0       :      0.70s CPU      0.61s WALL (       1 calls)

     Called by electrons:
     c_bands      :     55.43s CPU     32.55s WALL (       6 calls)
     sum_band     :     12.62s CPU     10.31s WALL (       6 calls)
     v_of_rho     :      1.09s CPU      0.84s WALL (       7 calls)
     newd         :      0.47s CPU      0.66s WALL (       7 calls)
     mix_rho      :      0.12s CPU      0.13s WALL (       6 calls)

     Called by c_bands:
     init_us_2    :      0.58s CPU      0.52s WALL (     104 calls)
     init_us_2:cp :      0.57s CPU      0.52s WALL (     104 calls)
     cegterg      :     54.46s CPU     42.35s WALL (      48 calls)

     Called by *egterg:
     cdiaghg      :      0.11s CPU      0.07s WALL (     195 calls)
     h_psi        :     54.53s CPU     42.38s WALL (     203 calls)
     s_psi        :      1.21s CPU      0.74s WALL (     203 calls)
     g_psi        :      0.16s CPU      0.15s WALL (     147 calls)

     Called by h_psi:
     h_psi:calbec :      1.41s CPU      1.39s WALL (     203 calls)
     vloc_psi     :     51.81s CPU     40.13s WALL (     203 calls)
     add_vuspsi   :      1.11s CPU      0.66s WALL (     203 calls)

     General routines
     calbec       :      1.90s CPU      1.78s WALL (     251 calls)
     fft          :      0.89s CPU      0.75s WALL (      77 calls)
     ffts         :      0.03s CPU      0.03s WALL (       6 calls)
     fftw         :     53.65s CPU     41.55s WALL (    5568 calls)

     Parallel routines

     PWSCF        :   1m15.74s CPU     48.97s WALL


   This run was terminated on:  11:45:51   3Jul2025            

=------------------------------------------------------------------------------=
   JOB DONE.
=------------------------------------------------------------------------------=
