
     Program PWSCF v.7.2 starts on  3Jul2025 at 12: 0: 6 

     This program is part of the open-source Quantum ESPRESSO suite
     for quantum simulation of materials; please cite
         "P. Giannozzi et al., J. Phys.:Condens. Matter 21 395502 (2009);
         "P. Giannozzi et al., J. Phys.:Condens. Matter 29 465901 (2017);
         "P. Giannozzi et al., J. Chem. Phys. 152 154105 (2020);
          URL http://www.quantum-espresso.org", 
     in publications or presentations arising from this work. More details at
     http://www.quantum-espresso.org/quote

     Parallel version (MPI & OpenMP), running on       2 processor cores
     Number of MPI processes:                 1
     Threads/MPI process:                     2

     MPI processes distributed on     1 nodes
     368 MiB available memory on the printing compute node when the environment starts

     Reading input from ../latticeparam/alpha_8_9.64.in

     Current dimensions of program PWSCF are:
     Max number of different atomic species (ntypx) = 10
     Max number of k-points (npk) =  40000
     Max angular momentum in pseudopotentials (lmaxx) =  4
     file B.pbesol-n-rrkjus_psl.1.0.0.UPF: wavefunction(s)  2S renormalized

     IMPORTANT: XC functional enforced from input :
     Exchange-correlation= PBESOL
                           (   1   4  10   8   0   0   0)
     Any further DFT definition will be discarded
     Please, verify this is what you really want


     Subspace diagonalization in iterative solution of the eigenvalue problem:
     a serial algorithm will be used


     G-vector sticks info
     --------------------
     sticks:   dense  smooth     PW     G-vecs:    dense   smooth      PW
     Sum        1789    1789    499               122815   122815   17711

     Using Slab Decomposition



     bravais-lattice index     =            4
     lattice parameter (alat)  =       9.6400  a.u.
     unit-cell volume          =    1551.6427 (a.u.)^3
     number of atoms/cell      =            8
     number of atomic types    =            1
     number of electrons       =        24.00
     number of Kohn-Sham states=           16
     kinetic-energy cutoff     =      70.0000  Ry
     charge density cutoff     =     280.0000  Ry
     scf convergence threshold =      1.0E-06
     mixing beta               =       0.7000
     number of iterations used =            8  plain     mixing
     Exchange-correlation= PBESOL
                           (   1   4  10   8   0   0   0)

     celldm(1)=   9.640000  celldm(2)=   0.000000  celldm(3)=   2.000000
     celldm(4)=   0.000000  celldm(5)=   0.000000  celldm(6)=   0.000000

     crystal axes: (cart. coord. in units of alat)
               a(1) = (   1.000000   0.000000   0.000000 )  
               a(2) = (  -0.500000   0.866025   0.000000 )  
               a(3) = (   0.000000   0.000000   2.000000 )  

     reciprocal axes: (cart. coord. in units 2 pi/alat)
               b(1) = (  1.000000  0.577350 -0.000000 )  
               b(2) = (  0.000000  1.154701  0.000000 )  
               b(3) = (  0.000000 -0.000000  0.500000 )  


     PseudoPot. # 1 for B  read from file:
     ../../pseudo/B.pbesol-n-rrkjus_psl.1.0.0.UPF
     MD5 check sum: a3839a09b1a4e02f2a06a66adc9253fc
     Pseudo is Ultrasoft + core correction, Zval =  3.0
     Generated using &quot;atomic&quot; code by A. Dal Corso  v.6.3MaX
     Using radial grid of 1059 points,  4 beta functions with: 
                l(1) =   0
                l(2) =   0
                l(3) =   1
                l(4) =   1
     Q(r) pseudized with 0 coefficients 


     atomic species   valence    mass     pseudopotential
        B              3.00    10.81100     B ( 1.00)

     24 Sym. Ops., with inversion, found



   Cartesian axes

     site n.     atom                  positions (alat units)
         1           B   tau(   1) = (   0.3333330   0.0000000   0.0000000  )
         2           B   tau(   2) = (   0.6666670   0.0000000   0.0000000  )
         3           B   tau(   3) = (  -0.1666665   0.2886748   0.0000000  )
         4           B   tau(   4) = (   0.1666665   0.2886748   0.0000000  )
         5           B   tau(   5) = (   0.5000005   0.2886748   0.0000000  )
         6           B   tau(   6) = (  -0.3333335   0.5773506   0.0000000  )
         7           B   tau(   7) = (  -0.0000005   0.5773506   0.0000000  )
         8           B   tau(   8) = (   0.3333335   0.5773506   0.0000000  )

     number of k points=    10  Marzari-Vanderbilt smearing, width (Ry)=  0.0350
                       cart. coord. in units 2pi/alat
        k(    1) = (   0.0000000   0.0000000   0.0000000), wk =   0.0312500
        k(    2) = (   0.0000000   0.1443376   0.0000000), wk =   0.1875000
        k(    3) = (   0.0000000   0.2886751   0.0000000), wk =   0.1875000
        k(    4) = (   0.0000000   0.4330127   0.0000000), wk =   0.1875000
        k(    5) = (   0.0000000  -0.5773503   0.0000000), wk =   0.0937500
        k(    6) = (   0.1250000   0.2165064   0.0000000), wk =   0.1875000
        k(    7) = (   0.1250000   0.3608439   0.0000000), wk =   0.3750000
        k(    8) = (   0.1250000   0.5051815   0.0000000), wk =   0.3750000
        k(    9) = (   0.2500000   0.4330127   0.0000000), wk =   0.1875000
        k(   10) = (   0.2500000   0.5773503   0.0000000), wk =   0.1875000

     Dense  grid:   122815 G-vectors     FFT dimensions: (  54,  54, 108)

     Estimated max dynamical RAM per process >     224.85 MB

     Initial potential from superposition of free atoms

     starting charge      23.9977, renormalised to      24.0000

     negative rho (up, down):  4.948E-05 0.000E+00
     Starting wfcs are   32 randomized atomic wfcs

     total cpu time spent up to now is        6.4 secs

     per-process dynamical memory:   126.7 Mb

     Self-consistent Calculation

     iteration #  1     ecut=    70.00 Ry     beta= 0.70
     Davidson diagonalization with overlap
     ethr =  1.00E-02,  avg # of iterations =  2.0

     negative rho (up, down):  3.645E-04 0.000E+00

     total cpu time spent up to now is       17.5 secs

     total energy              =     -49.87570861 Ry
     estimated scf accuracy    <       0.65226270 Ry

     iteration #  2     ecut=    70.00 Ry     beta= 0.70
     Davidson diagonalization with overlap
     ethr =  2.72E-03,  avg # of iterations =  2.0

     negative rho (up, down):  6.460E-04 0.000E+00

     total cpu time spent up to now is       15.1 secs

     total energy              =     -49.98166924 Ry
     estimated scf accuracy    <       0.01643646 Ry

     iteration #  3     ecut=    70.00 Ry     beta= 0.70
     Davidson diagonalization with overlap
     ethr =  6.85E-05,  avg # of iterations =  2.6

     negative rho (up, down):  7.435E-04 0.000E+00

     total cpu time spent up to now is       25.2 secs

     total energy              =     -49.98582876 Ry
     estimated scf accuracy    <       0.00443068 Ry

     iteration #  4     ecut=    70.00 Ry     beta= 0.70
     Davidson diagonalization with overlap
     ethr =  1.85E-05,  avg # of iterations =  3.8

     negative rho (up, down):  8.425E-04 0.000E+00

     total cpu time spent up to now is       35.5 secs

     total energy              =     -49.98679495 Ry
     estimated scf accuracy    <       0.00016370 Ry

     iteration #  5     ecut=    70.00 Ry     beta= 0.70
     Davidson diagonalization with overlap
     ethr =  6.82E-07,  avg # of iterations =  4.2

     negative rho (up, down):  8.522E-04 0.000E+00

     total cpu time spent up to now is       48.6 secs

     total energy              =     -49.98681405 Ry
     estimated scf accuracy    <       0.00001371 Ry

     iteration #  6     ecut=    70.00 Ry     beta= 0.70
     Davidson diagonalization with overlap
     ethr =  5.71E-08,  avg # of iterations =  2.8

     negative rho (up, down):  8.526E-04 0.000E+00

     total cpu time spent up to now is       48.8 secs

     End of self-consistent calculation

          k = 0.0000 0.0000 0.0000 ( 15261 PWs)   bands (ev):

   -16.1690 -12.0837 -12.0000 -11.9999  -9.7873  -9.7873  -7.6422  -7.0425
    -2.2305  -2.2305  -0.7382  -0.2295  -0.2295  -0.0044  -0.0043   0.4030

          k = 0.0000 0.1443 0.0000 ( 15344 PWs)   bands (ev):

   -16.0997 -12.8343 -12.0644 -11.3097  -9.8576  -9.6095  -7.3540  -6.9367
    -2.9554  -2.8456  -1.8182  -0.7365  -0.0946   0.6742   0.7791   1.1167

          k = 0.0000 0.2887 0.0000 ( 15360 PWs)   bands (ev):

   -15.8970 -13.5882 -12.1971 -10.9442  -9.6496  -9.1562  -6.8388  -6.6243
    -4.1198  -3.7536  -3.0771  -1.2628  -0.3462   1.8419   2.1047   2.2575

          k = 0.0000 0.4330 0.0000 ( 15388 PWs)   bands (ev):

   -15.5895 -14.2406 -12.3076 -10.9801  -8.9948  -8.6098  -6.7439  -6.1352
    -5.1181  -4.1635  -4.1578  -1.5881  -0.5633   2.8924   3.3380   3.3475

          k = 0.0000-0.5774 0.0000 ( 15414 PWs)   bands (ev):

   -15.3602 -14.5873 -12.3488 -11.0258  -8.5651  -8.3174  -6.9742  -5.7346
    -5.5625  -4.7585  -4.1464  -1.6974  -0.6434   3.0522   3.5625   3.9740

          k = 0.1250 0.2165 0.0000 ( 15329 PWs)   bands (ev):

   -15.9633 -13.3792 -12.2277 -10.8489  -9.9099  -9.2367  -6.9664  -6.7272
    -3.8321  -3.4952  -2.6852  -1.4810   0.3452   1.2443   1.3189   1.9430

          k = 0.1250 0.3608 0.0000 ( 15346 PWs)   bands (ev):

   -15.7028 -14.0022 -12.4450 -10.5900  -9.5905  -8.6706  -6.7759  -6.3206
    -4.6369  -4.1492  -3.7018  -2.0573   0.3585   2.0939   2.1729   3.1129

          k = 0.1250 0.5052 0.0000 ( 15364 PWs)   bands (ev):

   -15.3813 -14.5225 -12.5736 -10.6121  -8.9494  -8.2094  -7.1938  -5.7921
    -5.1386  -4.5773  -4.2319  -2.3245   0.2447   2.7408   3.2172   3.4583

          k = 0.2500 0.4330 0.0000 ( 15363 PWs)   bands (ev):

   -15.4004 -14.4546 -12.7538 -10.0023  -9.5282  -8.1603  -7.3340  -5.8396
    -4.5665  -4.5335  -4.3664  -2.7626   1.3350   2.2239   2.3281   3.4218

          k = 0.2500 0.5774 0.0000 ( 15337 PWs)   bands (ev):

   -15.1307 -14.7772 -12.8722  -9.8662  -9.1849  -7.9468  -7.8631  -5.3912
    -4.8856  -4.7180  -4.3818  -2.9982   1.5567   2.5767   2.8514   2.9213

     the Fermi energy is    -0.6778 ev

!    total energy              =     -49.98681787 Ry
     estimated scf accuracy    <       0.00000044 Ry
     smearing contrib. (-TS)   =      -0.00023897 Ry
     internal energy E=F+TS    =     -49.98657890 Ry

     The total energy is F=E-TS. E is the sum of the following terms:
     one-electron contribution =    -178.64368968 Ry
     hartree contribution      =      93.81390560 Ry
     xc contribution           =     -23.11737927 Ry
     ewald contribution        =      57.96058445 Ry

     convergence has been achieved in   6 iterations

     Writing all to output data dir ../../outdir/borophene.save/

     init_run     :      7.75s CPU      6.28s WALL (       1 calls)
     electrons    :     86.17s CPU     42.43s WALL (       1 calls)

     Called by init_run:
     wfcinit      :      6.66s CPU      5.19s WALL (       1 calls)
     potinit      :      0.19s CPU      0.18s WALL (       1 calls)
     hinit0       :      0.75s CPU      0.70s WALL (       1 calls)

     Called by electrons:
     c_bands      :     68.47s CPU     40.44s WALL (       6 calls)
     sum_band     :     16.15s CPU      0.37s WALL (       6 calls)
     v_of_rho     :      1.11s CPU      0.93s WALL (       7 calls)
     newd         :      0.50s CPU      0.69s WALL (       7 calls)
     mix_rho      :      0.13s CPU      0.21s WALL (       6 calls)

     Called by c_bands:
     init_us_2    :      0.72s CPU      0.74s WALL (     130 calls)
     init_us_2:cp :      0.72s CPU      0.74s WALL (     130 calls)
     cegterg      :     67.21s CPU     39.34s WALL (      60 calls)

     Called by *egterg:
     cdiaghg      :      0.13s CPU      0.08s WALL (     234 calls)
     h_psi        :     67.48s CPU     39.93s WALL (     244 calls)
     s_psi        :      1.55s CPU      0.94s WALL (     244 calls)
     g_psi        :      0.18s CPU      0.19s WALL (     174 calls)

     Called by h_psi:
     h_psi:calbec :      1.81s CPU      1.66s WALL (     244 calls)
     vloc_psi     :     63.98s CPU     37.13s WALL (     244 calls)
     add_vuspsi   :      1.46s CPU      0.89s WALL (     244 calls)

     General routines
     calbec       :      2.46s CPU      2.24s WALL (     304 calls)
     fft          :      0.95s CPU      0.84s WALL (      77 calls)
     ffts         :      0.04s CPU      0.03s WALL (       6 calls)
     fftw         :     65.44s CPU     38.15s WALL (    6884 calls)

     Parallel routines

     PWSCF        :   1m34.04s CPU     48.93s WALL


   This run was terminated on:  12: 0:55   3Jul2025            

=------------------------------------------------------------------------------=
   JOB DONE.
=------------------------------------------------------------------------------=
