
     Program PWSCF v.7.2 starts on  3Jul2025 at 10:56:29 

     This program is part of the open-source Quantum ESPRESSO suite
     for quantum simulation of materials; please cite
         "P. Giannozzi et al., J. Phys.:Condens. Matter 21 395502 (2009);
         "P. Giannozzi et al., J. Phys.:Condens. Matter 29 465901 (2017);
         "P. Giannozzi et al., J. Chem. Phys. 152 154105 (2020);
          URL http://www.quantum-espresso.org", 
     in publications or presentations arising from this work. More details at
     http://www.quantum-espresso.org/quote

     Parallel version (MPI & OpenMP), running on       2 processor cores
     Number of MPI processes:                 1
     Threads/MPI process:                     2

     MPI processes distributed on     1 nodes
     313 MiB available memory on the printing compute node when the environment starts

     Reading input from ../latticeparam/alpha_50_9.62.in

     Current dimensions of program PWSCF are:
     Max number of different atomic species (ntypx) = 10
     Max number of k-points (npk) =  40000
     Max angular momentum in pseudopotentials (lmaxx) =  4
     file B.pbesol-n-rrkjus_psl.1.0.0.UPF: wavefunction(s)  2S renormalized

     IMPORTANT: XC functional enforced from input :
     Exchange-correlation= PBESOL
                           (   1   4  10   8   0   0   0)
     Any further DFT definition will be discarded
     Please, verify this is what you really want


     Subspace diagonalization in iterative solution of the eigenvalue problem:
     a serial algorithm will be used


     G-vector sticks info
     --------------------
     sticks:   dense  smooth     PW     G-vecs:    dense   smooth      PW
     Sum        1285    1285    361                73659    73659   11037

     Using Slab Decomposition



     bravais-lattice index     =            4
     lattice parameter (alat)  =       9.6200  a.u.
     unit-cell volume          =    1542.0052 (a.u.)^3
     number of atoms/cell      =            8
     number of atomic types    =            1
     number of electrons       =        24.00
     number of Kohn-Sham states=           16
     kinetic-energy cutoff     =      50.0000  Ry
     charge density cutoff     =     200.0000  Ry
     scf convergence threshold =      1.0E-06
     mixing beta               =       0.7000
     number of iterations used =            8  plain     mixing
     Exchange-correlation= PBESOL
                           (   1   4  10   8   0   0   0)

     celldm(1)=   9.620000  celldm(2)=   0.000000  celldm(3)=   2.000000
     celldm(4)=   0.000000  celldm(5)=   0.000000  celldm(6)=   0.000000

     crystal axes: (cart. coord. in units of alat)
               a(1) = (   1.000000   0.000000   0.000000 )  
               a(2) = (  -0.500000   0.866025   0.000000 )  
               a(3) = (   0.000000   0.000000   2.000000 )  

     reciprocal axes: (cart. coord. in units 2 pi/alat)
               b(1) = (  1.000000  0.577350 -0.000000 )  
               b(2) = (  0.000000  1.154701  0.000000 )  
               b(3) = (  0.000000 -0.000000  0.500000 )  


     PseudoPot. # 1 for B  read from file:
     ../../pseudo/B.pbesol-n-rrkjus_psl.1.0.0.UPF
     MD5 check sum: a3839a09b1a4e02f2a06a66adc9253fc
     Pseudo is Ultrasoft + core correction, Zval =  3.0
     Generated using &quot;atomic&quot; code by A. Dal Corso  v.6.3MaX
     Using radial grid of 1059 points,  4 beta functions with: 
                l(1) =   0
                l(2) =   0
                l(3) =   1
                l(4) =   1
     Q(r) pseudized with 0 coefficients 


     atomic species   valence    mass     pseudopotential
        B              3.00    10.81100     B ( 1.00)

     24 Sym. Ops., with inversion, found



   Cartesian axes

     site n.     atom                  positions (alat units)
         1           B   tau(   1) = (   0.3333330   0.0000000   0.0000000  )
         2           B   tau(   2) = (   0.6666670   0.0000000   0.0000000  )
         3           B   tau(   3) = (  -0.1666665   0.2886748   0.0000000  )
         4           B   tau(   4) = (   0.1666665   0.2886748   0.0000000  )
         5           B   tau(   5) = (   0.5000005   0.2886748   0.0000000  )
         6           B   tau(   6) = (  -0.3333335   0.5773506   0.0000000  )
         7           B   tau(   7) = (  -0.0000005   0.5773506   0.0000000  )
         8           B   tau(   8) = (   0.3333335   0.5773506   0.0000000  )

     number of k points=    12  Marzari-Vanderbilt smearing, width (Ry)=  0.0350
                       cart. coord. in units 2pi/alat
        k(    1) = (   0.0000000   0.0000000   0.0000000), wk =   0.0246914
        k(    2) = (   0.0000000   0.1283001   0.0000000), wk =   0.1481481
        k(    3) = (   0.0000000   0.2566001   0.0000000), wk =   0.1481481
        k(    4) = (   0.0000000   0.3849002   0.0000000), wk =   0.1481481
        k(    5) = (   0.0000000   0.5132002   0.0000000), wk =   0.1481481
        k(    6) = (   0.1111111   0.1924501   0.0000000), wk =   0.1481481
        k(    7) = (   0.1111111   0.3207501   0.0000000), wk =   0.2962963
        k(    8) = (   0.1111111   0.4490502   0.0000000), wk =   0.2962963
        k(    9) = (   0.1111111   0.5773503   0.0000000), wk =   0.1481481
        k(   10) = (   0.2222222   0.3849002   0.0000000), wk =   0.1481481
        k(   11) = (   0.2222222   0.5132002   0.0000000), wk =   0.2962963
        k(   12) = (   0.3333333   0.5773503   0.0000000), wk =   0.0493827

     Dense  grid:    73659 G-vectors     FFT dimensions: (  45,  45,  90)

     Estimated max dynamical RAM per process >     139.00 MB

     Check: negative core charge=   -0.000004

     Initial potential from superposition of free atoms

     starting charge      23.9977, renormalised to      24.0000

     negative rho (up, down):  3.505E-04 0.000E+00
     Starting wfcs are   32 randomized atomic wfcs

     total cpu time spent up to now is       -7.6 secs

     per-process dynamical memory:    82.7 Mb

     Self-consistent Calculation

     iteration #  1     ecut=    50.00 Ry     beta= 0.70
     Davidson diagonalization with overlap
     ethr =  1.00E-02,  avg # of iterations =  2.0

     negative rho (up, down):  2.685E-03 0.000E+00

     total cpu time spent up to now is        1.4 secs

     total energy              =     -49.87289511 Ry
     estimated scf accuracy    <       0.66507344 Ry

     iteration #  2     ecut=    50.00 Ry     beta= 0.70
     Davidson diagonalization with overlap
     ethr =  2.77E-03,  avg # of iterations =  2.0

     negative rho (up, down):  4.023E-03 0.000E+00

     total cpu time spent up to now is       10.3 secs

     total energy              =     -49.98145082 Ry
     estimated scf accuracy    <       0.01716405 Ry

     iteration #  3     ecut=    50.00 Ry     beta= 0.70
     Davidson diagonalization with overlap
     ethr =  7.15E-05,  avg # of iterations =  4.2

     negative rho (up, down):  4.439E-03 0.000E+00

     total cpu time spent up to now is        8.4 secs

     total energy              =     -49.98577939 Ry
     estimated scf accuracy    <       0.00458433 Ry

     iteration #  4     ecut=    50.00 Ry     beta= 0.70
     Davidson diagonalization with overlap
     ethr =  1.91E-05,  avg # of iterations =  4.4

     negative rho (up, down):  4.841E-03 0.000E+00

     total cpu time spent up to now is       18.3 secs

     total energy              =     -49.98678585 Ry
     estimated scf accuracy    <       0.00016962 Ry

     iteration #  5     ecut=    50.00 Ry     beta= 0.70
     Davidson diagonalization with overlap
     ethr =  7.07E-07,  avg # of iterations =  6.0

     negative rho (up, down):  4.878E-03 0.000E+00

     total cpu time spent up to now is       30.4 secs

     total energy              =     -49.98680510 Ry
     estimated scf accuracy    <       0.00001447 Ry

     iteration #  6     ecut=    50.00 Ry     beta= 0.70
     Davidson diagonalization with overlap
     ethr =  6.03E-08,  avg # of iterations =  2.7

     negative rho (up, down):  4.880E-03 0.000E+00

     total cpu time spent up to now is       27.5 secs

     End of self-consistent calculation

          k = 0.0000 0.0000 0.0000 (  9151 PWs)   bands (ev):

   -16.1813 -12.0890 -12.0061 -12.0061  -9.7824  -9.7824  -7.6433  -7.0484
    -2.2055  -2.2054  -0.7146  -0.2045  -0.2045   0.0339   0.0339   0.4318

          k = 0.0000 0.1283 0.0000 (  9215 PWs)   bands (ev):

   -16.1263 -12.7538 -12.0578 -11.3855  -9.8474  -9.6409  -7.4082  -6.9644
    -2.8088  -2.7176  -1.6545  -0.6450  -0.0502   0.5972   0.6853   1.0366

          k = 0.0000 0.2566 0.0000 (  9197 PWs)   bands (ev):

   -15.9646 -13.4342 -12.1722 -10.9781  -9.7495  -9.2689  -6.9383  -6.7152
    -3.8429  -3.5540  -2.7954  -1.1413  -0.2629   1.6277   1.8536   2.0221

          k = 0.0000 0.3849 0.0000 (  9199 PWs)   bands (ev):

   -15.7106 -14.0488 -12.2818 -10.9554  -9.2298  -8.7835  -6.6991  -6.3155
    -4.8040  -4.0834  -3.8169  -1.4841  -0.4814   2.6384   2.9861   3.0150

          k = 0.0000 0.5132 0.0000 (  9224 PWs)   bands (ev):

   -15.4313 -14.5128 -12.3450 -11.0174  -8.6710  -8.3813  -6.9032  -5.8474
    -5.4472  -4.6017  -4.1406  -1.6574  -0.6061   3.1738   3.5383   3.6529

          k = 0.1111 0.1925 0.0000 (  9201 PWs)   bands (ev):

   -16.0178 -13.2467 -12.1849 -10.9616  -9.9089  -9.3444  -7.0640  -6.7976
    -3.5887  -3.3028  -2.4462  -1.2939   0.3015   1.1714   1.1931   1.6731

          k = 0.1111 0.3208 0.0000 (  9202 PWs)   bands (ev):

   -15.8079 -13.8213 -12.3703 -10.6693  -9.7113  -8.8609  -6.7598  -6.4709
    -4.4158  -3.9653  -3.3891  -1.8418   0.3051   1.9439   1.9627   2.7985

          k = 0.1111 0.4491 0.0000 (  9203 PWs)   bands (ev):

   -15.5238 -14.3456 -12.5073 -10.6700  -9.1438  -8.3830  -6.9546  -6.0146
    -5.0012  -4.2646  -4.2185  -2.1500   0.1708   2.6344   3.0933   3.3441

          k = 0.1111 0.5774 0.0000 (  9222 PWs)   bands (ev):

   -15.3252 -14.6273 -12.5561 -10.6945  -8.7699  -8.1608  -7.2595  -5.6661
    -5.2618  -4.7588  -4.1755  -2.2497   0.1156   3.0495   3.1016   4.0580

          k = 0.2222 0.3849 0.0000 (  9217 PWs)   bands (ev):

   -15.5589 -14.2561 -12.6479 -10.1827  -9.6564  -8.3631  -7.0213  -6.0774
    -4.5964  -4.3880  -4.0400  -2.5168   1.0934   2.0329   2.2542   3.2543

          k = 0.2222 0.5132 0.0000 (  9230 PWs)   bands (ev):

   -15.2649 -14.6520 -12.8116 -10.0402  -9.2174  -8.0291  -7.6179  -5.5958
    -4.7550  -4.6779  -4.3552  -2.8461   1.2860   2.5768   2.8658   3.1433

          k = 0.3333 0.5774 0.0000 (  9189 PWs)   bands (ev):

   -14.9634 -14.9634 -12.9347  -9.4547  -9.4546  -8.0332  -7.9009  -5.1217
    -5.1217  -4.5011  -4.5011  -3.1162   2.3701   2.3702   2.7275   2.7275

     the Fermi energy is    -0.6576 ev

!    total energy              =     -49.98680916 Ry
     estimated scf accuracy    <       0.00000081 Ry
     smearing contrib. (-TS)   =       0.00025538 Ry
     internal energy E=F+TS    =     -49.98706455 Ry

     The total energy is F=E-TS. E is the sum of the following terms:
     one-electron contribution =    -178.86208531 Ry
     hartree contribution      =      93.94734315 Ry
     xc contribution           =     -23.15340701 Ry
     ewald contribution        =      58.08108462 Ry

     convergence has been achieved in   6 iterations

     Writing all to output data dir ../../outdir/borophene.save/

     init_run     :      5.82s CPU     -7.73s WALL (       1 calls)
     electrons    :     78.52s CPU     35.18s WALL (       1 calls)

     Called by init_run:
     wfcinit      :      5.02s CPU     -8.48s WALL (       1 calls)
     potinit      :      0.12s CPU      0.10s WALL (       1 calls)
     hinit0       :      0.59s CPU      0.54s WALL (       1 calls)

     Called by electrons:
     c_bands      :     62.49s CPU     34.80s WALL (       6 calls)
     sum_band     :     14.95s CPU     -0.58s WALL (       6 calls)
     v_of_rho     :      0.82s CPU      0.64s WALL (       7 calls)
     newd         :      0.26s CPU      0.35s WALL (       7 calls)
     mix_rho      :      0.09s CPU      0.09s WALL (       6 calls)

     Called by c_bands:
     init_us_2    :      0.55s CPU      0.48s WALL (     156 calls)
     init_us_2:cp :      0.55s CPU      0.48s WALL (     156 calls)
     cegterg      :     61.52s CPU     33.99s WALL (      72 calls)

     Called by *egterg:
     cdiaghg      :      0.17s CPU      0.11s WALL (     327 calls)
     h_psi        :     61.63s CPU     22.10s WALL (     339 calls)
     s_psi        :      1.13s CPU      0.66s WALL (     339 calls)
     g_psi        :      0.21s CPU      0.17s WALL (     255 calls)

     Called by h_psi:
     h_psi:calbec :      1.83s CPU      1.30s WALL (     339 calls)
     vloc_psi     :     58.54s CPU     19.97s WALL (     339 calls)
     add_vuspsi   :      1.01s CPU      0.63s WALL (     339 calls)

     General routines
     calbec       :      2.32s CPU      1.70s WALL (     411 calls)
     fft          :      0.85s CPU      0.79s WALL (      77 calls)
     ffts         :      0.09s CPU      0.07s WALL (       6 calls)
     fftw         :     64.93s CPU     26.80s WALL (    8382 calls)

     Parallel routines

     PWSCF        :   1m24.42s CPU     27.64s WALL


   This run was terminated on:  10:56:56   3Jul2025            

=------------------------------------------------------------------------------=
   JOB DONE.
=------------------------------------------------------------------------------=
