
     Program PWSCF v.7.2 starts on  3Jul2025 at 11:45:52 

     This program is part of the open-source Quantum ESPRESSO suite
     for quantum simulation of materials; please cite
         "P. Giannozzi et al., J. Phys.:Condens. Matter 21 395502 (2009);
         "P. Giannozzi et al., J. Phys.:Condens. Matter 29 465901 (2017);
         "P. Giannozzi et al., J. Chem. Phys. 152 154105 (2020);
          URL http://www.quantum-espresso.org", 
     in publications or presentations arising from this work. More details at
     http://www.quantum-espresso.org/quote

     Parallel version (MPI & OpenMP), running on       2 processor cores
     Number of MPI processes:                 1
     Threads/MPI process:                     2

     MPI processes distributed on     1 nodes
     401 MiB available memory on the printing compute node when the environment starts

     Reading input from ../latticeparam/alpha_7_9.54.in

     Current dimensions of program PWSCF are:
     Max number of different atomic species (ntypx) = 10
     Max number of k-points (npk) =  40000
     Max angular momentum in pseudopotentials (lmaxx) =  4
     file B.pbesol-n-rrkjus_psl.1.0.0.UPF: wavefunction(s)  2S renormalized

     IMPORTANT: XC functional enforced from input :
     Exchange-correlation= PBESOL
                           (   1   4  10   8   0   0   0)
     Any further DFT definition will be discarded
     Please, verify this is what you really want


     Subspace diagonalization in iterative solution of the eigenvalue problem:
     a serial algorithm will be used


     G-vector sticks info
     --------------------
     sticks:   dense  smooth     PW     G-vecs:    dense   smooth      PW
     Sum        1765    1765    475               118997   118997   17003

     Using Slab Decomposition



     bravais-lattice index     =            4
     lattice parameter (alat)  =       9.5400  a.u.
     unit-cell volume          =    1503.8543 (a.u.)^3
     number of atoms/cell      =            8
     number of atomic types    =            1
     number of electrons       =        24.00
     number of Kohn-Sham states=           16
     kinetic-energy cutoff     =      70.0000  Ry
     charge density cutoff     =     280.0000  Ry
     scf convergence threshold =      1.0E-06
     mixing beta               =       0.7000
     number of iterations used =            8  plain     mixing
     Exchange-correlation= PBESOL
                           (   1   4  10   8   0   0   0)

     celldm(1)=   9.540000  celldm(2)=   0.000000  celldm(3)=   2.000000
     celldm(4)=   0.000000  celldm(5)=   0.000000  celldm(6)=   0.000000

     crystal axes: (cart. coord. in units of alat)
               a(1) = (   1.000000   0.000000   0.000000 )  
               a(2) = (  -0.500000   0.866025   0.000000 )  
               a(3) = (   0.000000   0.000000   2.000000 )  

     reciprocal axes: (cart. coord. in units 2 pi/alat)
               b(1) = (  1.000000  0.577350 -0.000000 )  
               b(2) = (  0.000000  1.154701  0.000000 )  
               b(3) = (  0.000000 -0.000000  0.500000 )  


     PseudoPot. # 1 for B  read from file:
     ../../pseudo/B.pbesol-n-rrkjus_psl.1.0.0.UPF
     MD5 check sum: a3839a09b1a4e02f2a06a66adc9253fc
     Pseudo is Ultrasoft + core correction, Zval =  3.0
     Generated using &quot;atomic&quot; code by A. Dal Corso  v.6.3MaX
     Using radial grid of 1059 points,  4 beta functions with: 
                l(1) =   0
                l(2) =   0
                l(3) =   1
                l(4) =   1
     Q(r) pseudized with 0 coefficients 


     atomic species   valence    mass     pseudopotential
        B              3.00    10.81100     B ( 1.00)

     24 Sym. Ops., with inversion, found



   Cartesian axes

     site n.     atom                  positions (alat units)
         1           B   tau(   1) = (   0.3333330   0.0000000   0.0000000  )
         2           B   tau(   2) = (   0.6666670   0.0000000   0.0000000  )
         3           B   tau(   3) = (  -0.1666665   0.2886748   0.0000000  )
         4           B   tau(   4) = (   0.1666665   0.2886748   0.0000000  )
         5           B   tau(   5) = (   0.5000005   0.2886748   0.0000000  )
         6           B   tau(   6) = (  -0.3333335   0.5773506   0.0000000  )
         7           B   tau(   7) = (  -0.0000005   0.5773506   0.0000000  )
         8           B   tau(   8) = (   0.3333335   0.5773506   0.0000000  )

     number of k points=     8  Marzari-Vanderbilt smearing, width (Ry)=  0.0350
                       cart. coord. in units 2pi/alat
        k(    1) = (   0.0000000   0.0000000   0.0000000), wk =   0.0408163
        k(    2) = (   0.0000000   0.1649572   0.0000000), wk =   0.2448980
        k(    3) = (   0.0000000   0.3299144   0.0000000), wk =   0.2448980
        k(    4) = (   0.0000000   0.4948717   0.0000000), wk =   0.2448980
        k(    5) = (   0.1428571   0.2474358   0.0000000), wk =   0.2448980
        k(    6) = (   0.1428571   0.4123930   0.0000000), wk =   0.4897959
        k(    7) = (   0.1428571   0.5773503   0.0000000), wk =   0.2448980
        k(    8) = (   0.2857143   0.4948717   0.0000000), wk =   0.2448980

     Dense  grid:   118997 G-vectors     FFT dimensions: (  54,  54, 108)

     Estimated max dynamical RAM per process >     211.30 MB

     Initial potential from superposition of free atoms

     starting charge      23.9977, renormalised to      24.0000

     negative rho (up, down):  3.878E-05 0.000E+00
     Starting wfcs are   32 randomized atomic wfcs

     total cpu time spent up to now is        4.6 secs

     per-process dynamical memory:   115.8 Mb

     Self-consistent Calculation

     iteration #  1     ecut=    70.00 Ry     beta= 0.70
     Davidson diagonalization with overlap
     ethr =  1.00E-02,  avg # of iterations =  2.0

     negative rho (up, down):  3.641E-04 0.000E+00

     total cpu time spent up to now is       13.3 secs

     total energy              =     -49.86446740 Ry
     estimated scf accuracy    <       0.71391704 Ry

     iteration #  2     ecut=    70.00 Ry     beta= 0.70
     Davidson diagonalization with overlap
     ethr =  2.97E-03,  avg # of iterations =  2.0

     negative rho (up, down):  6.508E-04 0.000E+00

     total cpu time spent up to now is       23.2 secs

     total energy              =     -49.98067771 Ry
     estimated scf accuracy    <       0.01856078 Ry

     iteration #  3     ecut=    70.00 Ry     beta= 0.70
     Davidson diagonalization with overlap
     ethr =  7.73E-05,  avg # of iterations =  4.6

     negative rho (up, down):  7.525E-04 0.000E+00

     total cpu time spent up to now is       82.5 secs

     total energy              =     -49.98543250 Ry
     estimated scf accuracy    <       0.00497883 Ry

     iteration #  4     ecut=    70.00 Ry     beta= 0.70
     Davidson diagonalization with overlap
     ethr =  2.07E-05,  avg # of iterations =  3.2

     negative rho (up, down):  8.620E-04 0.000E+00

     total cpu time spent up to now is       92.1 secs

     total energy              =     -49.98651881 Ry
     estimated scf accuracy    <       0.00017099 Ry

     iteration #  5     ecut=    70.00 Ry     beta= 0.70
     Davidson diagonalization with overlap
     ethr =  7.12E-07,  avg # of iterations =  3.5

     negative rho (up, down):  8.718E-04 0.000E+00

     total cpu time spent up to now is      102.1 secs

     total energy              =     -49.98653986 Ry
     estimated scf accuracy    <       0.00001632 Ry

     iteration #  6     ecut=    70.00 Ry     beta= 0.70
     Davidson diagonalization with overlap
     ethr =  6.80E-08,  avg # of iterations =  3.1

     negative rho (up, down):  8.721E-04 0.000E+00

     total cpu time spent up to now is      101.5 secs

     End of self-consistent calculation

          k = 0.0000 0.0000 0.0000 ( 14889 PWs)   bands (ev):

   -16.2126 -12.0836 -12.0049 -12.0048  -9.7378  -9.7378  -7.6229  -7.0753
    -2.0785  -2.0785  -0.6188  -0.1031  -0.1031   0.2091   0.2091   0.5489

          k = 0.0000 0.1650 0.0000 ( 14896 PWs)   bands (ev):

   -16.1210 -12.9551 -12.0845 -11.2177  -9.8249  -9.5105  -7.2516  -6.9340
    -2.9770  -2.8415  -1.9183  -0.7091   0.0065   1.0704   1.1945   1.4320

          k = 0.0000 0.3299 0.0000 ( 14902 PWs)   bands (ev):

   -15.8564 -13.8058 -12.2337 -10.9177  -9.4649  -8.9548  -6.7104  -6.5198
    -4.3090  -3.8104  -3.3576  -1.2775  -0.3001   2.4595   2.7640   2.8219

          k = 0.0000 0.4949 0.0000 ( 14872 PWs)   bands (ev):

   -15.4886 -14.4788 -12.3335 -10.9930  -8.7105  -8.3842  -6.8320  -5.9126
    -5.2848  -4.4960  -4.0428  -1.5686  -0.5054   3.4755   3.7612   3.8468

          k = 0.1429 0.2474 0.0000 ( 14871 PWs)   bands (ev):

   -15.9420 -13.5686 -12.2977 -10.6999  -9.8681  -9.0413  -6.8256  -6.6553
    -3.9591  -3.5773  -2.9000  -1.6032   0.5960   1.5385   1.8040   2.6268

          k = 0.1429 0.4124 0.0000 ( 14876 PWs)   bands (ev):

   -15.6082 -14.2490 -12.5477 -10.4760  -9.3859  -8.4037  -6.8873  -6.1234
    -4.6850  -4.1532  -4.0244  -2.2151   0.6258   2.6454   2.6922   3.4496

          k = 0.1429 0.5774 0.0000 ( 14878 PWs)   bands (ev):

   -15.3172 -14.6661 -12.6423 -10.4977  -8.8284  -8.0758  -7.3618  -5.6210
    -5.0298  -4.7519  -4.1081  -2.4029   0.5509   3.1989   3.4005   3.9866

          k = 0.2857 0.4949 0.0000 ( 14855 PWs)   bands (ev):

   -15.2352 -14.7173 -12.8713  -9.7381  -9.3570  -7.9564  -7.7166  -5.5179
    -4.7059  -4.4796  -4.3756  -2.9384   1.9103   2.6633   2.8392   3.4041

     the Fermi energy is    -0.5585 ev

!    total energy              =     -49.98654444 Ry
     estimated scf accuracy    <       0.00000059 Ry
     smearing contrib. (-TS)   =      -0.00128458 Ry
     internal energy E=F+TS    =     -49.98525986 Ry

     The total energy is F=E-TS. E is the sum of the following terms:
     one-electron contribution =    -179.80167801 Ry
     hartree contribution      =      94.52258715 Ry
     xc contribution           =     -23.27430674 Ry
     ewald contribution        =      58.56813775 Ry

     convergence has been achieved in   6 iterations

     Writing all to output data dir ../../outdir/borophene.save/

     init_run     :      6.25s CPU      4.54s WALL (       1 calls)
     electrons    :     71.84s CPU     96.87s WALL (       1 calls)

     Called by init_run:
     wfcinit      :      5.10s CPU      3.43s WALL (       1 calls)
     potinit      :      0.21s CPU      0.19s WALL (       1 calls)
     hinit0       :      0.78s CPU      0.74s WALL (       1 calls)

     Called by electrons:
     c_bands      :     57.90s CPU     85.14s WALL (       6 calls)
     sum_band     :     12.32s CPU     10.15s WALL (       6 calls)
     v_of_rho     :      1.15s CPU      0.96s WALL (       7 calls)
     newd         :      0.54s CPU      0.70s WALL (       7 calls)
     mix_rho      :      0.13s CPU      0.14s WALL (       6 calls)

     Called by c_bands:
     init_us_2    :      0.57s CPU      0.57s WALL (     104 calls)
     init_us_2:cp :      0.57s CPU      0.56s WALL (     104 calls)
     cegterg      :     56.86s CPU     84.22s WALL (      48 calls)

     Called by *egterg:
     cdiaghg      :      0.11s CPU      0.10s WALL (     196 calls)
     h_psi        :     56.87s CPU     83.79s WALL (     204 calls)
     s_psi        :      1.25s CPU      0.77s WALL (     204 calls)
     g_psi        :      0.16s CPU      0.18s WALL (     148 calls)

     Called by h_psi:
     h_psi:calbec :      1.43s CPU      1.43s WALL (     204 calls)
     vloc_psi     :     54.08s CPU     81.39s WALL (     204 calls)
     add_vuspsi   :      1.15s CPU      0.75s WALL (     204 calls)

     General routines
     calbec       :      1.92s CPU      1.85s WALL (     252 calls)
     fft          :      0.98s CPU      0.91s WALL (      77 calls)
     ffts         :      0.05s CPU      0.04s WALL (       6 calls)
     fftw         :     54.77s CPU     81.93s WALL (    5554 calls)

     Parallel routines

     PWSCF        :   1m18.22s CPU   1m41.59s WALL


   This run was terminated on:  11:47:33   3Jul2025            

=------------------------------------------------------------------------------=
   JOB DONE.
=------------------------------------------------------------------------------=
