
     Program PWSCF v.7.2 starts on  3Jul2025 at 11:15:30 

     This program is part of the open-source Quantum ESPRESSO suite
     for quantum simulation of materials; please cite
         "P. Giannozzi et al., J. Phys.:Condens. Matter 21 395502 (2009);
         "P. Giannozzi et al., J. Phys.:Condens. Matter 29 465901 (2017);
         "P. Giannozzi et al., J. Chem. Phys. 152 154105 (2020);
          URL http://www.quantum-espresso.org", 
     in publications or presentations arising from this work. More details at
     http://www.quantum-espresso.org/quote

     Parallel version (MPI & OpenMP), running on       2 processor cores
     Number of MPI processes:                 1
     Threads/MPI process:                     2

     MPI processes distributed on     1 nodes
     394 MiB available memory on the printing compute node when the environment starts

     Reading input from ../latticeparam/alpha_70_9.6.in

     Current dimensions of program PWSCF are:
     Max number of different atomic species (ntypx) = 10
     Max number of k-points (npk) =  40000
     Max angular momentum in pseudopotentials (lmaxx) =  4
     file B.pbesol-n-rrkjus_psl.1.0.0.UPF: wavefunction(s)  2S renormalized

     IMPORTANT: XC functional enforced from input :
     Exchange-correlation= PBESOL
                           (   1   4  10   8   0   0   0)
     Any further DFT definition will be discarded
     Please, verify this is what you really want


     Subspace diagonalization in iterative solution of the eigenvalue problem:
     a serial algorithm will be used


     G-vector sticks info
     --------------------
     sticks:   dense  smooth     PW     G-vecs:    dense   smooth      PW
     Sum        1789    1789    499               121627   121627   17639

     Using Slab Decomposition



     bravais-lattice index     =            4
     lattice parameter (alat)  =       9.6000  a.u.
     unit-cell volume          =    1532.4077 (a.u.)^3
     number of atoms/cell      =            8
     number of atomic types    =            1
     number of electrons       =        24.00
     number of Kohn-Sham states=           16
     kinetic-energy cutoff     =      70.0000  Ry
     charge density cutoff     =     280.0000  Ry
     scf convergence threshold =      1.0E-06
     mixing beta               =       0.7000
     number of iterations used =            8  plain     mixing
     Exchange-correlation= PBESOL
                           (   1   4  10   8   0   0   0)

     celldm(1)=   9.600000  celldm(2)=   0.000000  celldm(3)=   2.000000
     celldm(4)=   0.000000  celldm(5)=   0.000000  celldm(6)=   0.000000

     crystal axes: (cart. coord. in units of alat)
               a(1) = (   1.000000   0.000000   0.000000 )  
               a(2) = (  -0.500000   0.866025   0.000000 )  
               a(3) = (   0.000000   0.000000   2.000000 )  

     reciprocal axes: (cart. coord. in units 2 pi/alat)
               b(1) = (  1.000000  0.577350 -0.000000 )  
               b(2) = (  0.000000  1.154701  0.000000 )  
               b(3) = (  0.000000 -0.000000  0.500000 )  


     PseudoPot. # 1 for B  read from file:
     ../../pseudo/B.pbesol-n-rrkjus_psl.1.0.0.UPF
     MD5 check sum: a3839a09b1a4e02f2a06a66adc9253fc
     Pseudo is Ultrasoft + core correction, Zval =  3.0
     Generated using &quot;atomic&quot; code by A. Dal Corso  v.6.3MaX
     Using radial grid of 1059 points,  4 beta functions with: 
                l(1) =   0
                l(2) =   0
                l(3) =   1
                l(4) =   1
     Q(r) pseudized with 0 coefficients 


     atomic species   valence    mass     pseudopotential
        B              3.00    10.81100     B ( 1.00)

     24 Sym. Ops., with inversion, found



   Cartesian axes

     site n.     atom                  positions (alat units)
         1           B   tau(   1) = (   0.3333330   0.0000000   0.0000000  )
         2           B   tau(   2) = (   0.6666670   0.0000000   0.0000000  )
         3           B   tau(   3) = (  -0.1666665   0.2886748   0.0000000  )
         4           B   tau(   4) = (   0.1666665   0.2886748   0.0000000  )
         5           B   tau(   5) = (   0.5000005   0.2886748   0.0000000  )
         6           B   tau(   6) = (  -0.3333335   0.5773506   0.0000000  )
         7           B   tau(   7) = (  -0.0000005   0.5773506   0.0000000  )
         8           B   tau(   8) = (   0.3333335   0.5773506   0.0000000  )

     number of k points=    12  Marzari-Vanderbilt smearing, width (Ry)=  0.0350
                       cart. coord. in units 2pi/alat
        k(    1) = (   0.0000000   0.0000000   0.0000000), wk =   0.0246914
        k(    2) = (   0.0000000   0.1283001   0.0000000), wk =   0.1481481
        k(    3) = (   0.0000000   0.2566001   0.0000000), wk =   0.1481481
        k(    4) = (   0.0000000   0.3849002   0.0000000), wk =   0.1481481
        k(    5) = (   0.0000000   0.5132002   0.0000000), wk =   0.1481481
        k(    6) = (   0.1111111   0.1924501   0.0000000), wk =   0.1481481
        k(    7) = (   0.1111111   0.3207501   0.0000000), wk =   0.2962963
        k(    8) = (   0.1111111   0.4490502   0.0000000), wk =   0.2962963
        k(    9) = (   0.1111111   0.5773503   0.0000000), wk =   0.1481481
        k(   10) = (   0.2222222   0.3849002   0.0000000), wk =   0.1481481
        k(   11) = (   0.2222222   0.5132002   0.0000000), wk =   0.2962963
        k(   12) = (   0.3333333   0.5773503   0.0000000), wk =   0.0493827

     Dense  grid:   121627 G-vectors     FFT dimensions: (  54,  54, 108)

     Estimated max dynamical RAM per process >     230.13 MB

     Initial potential from superposition of free atoms

     starting charge      23.9977, renormalised to      24.0000

     negative rho (up, down):  4.477E-05 0.000E+00
     Starting wfcs are   32 randomized atomic wfcs

     total cpu time spent up to now is        8.0 secs

     per-process dynamical memory:   131.2 Mb

     Self-consistent Calculation

     iteration #  1     ecut=    70.00 Ry     beta= 0.70
     Davidson diagonalization with overlap
     ethr =  1.00E-02,  avg # of iterations =  2.0

     negative rho (up, down):  3.560E-04 0.000E+00

     total cpu time spent up to now is       10.7 secs

     total energy              =     -49.87243512 Ry
     estimated scf accuracy    <       0.67617700 Ry

     iteration #  2     ecut=    70.00 Ry     beta= 0.70
     Davidson diagonalization with overlap
     ethr =  2.82E-03,  avg # of iterations =  2.0

     negative rho (up, down):  6.322E-04 0.000E+00

     total cpu time spent up to now is       24.9 secs

     total energy              =     -49.98249897 Ry
     estimated scf accuracy    <       0.01744302 Ry

     iteration #  3     ecut=    70.00 Ry     beta= 0.70
     Davidson diagonalization with overlap
     ethr =  7.27E-05,  avg # of iterations =  5.6

     negative rho (up, down):  7.296E-04 0.000E+00

     total cpu time spent up to now is       43.6 secs

     total energy              =     -49.98693799 Ry
     estimated scf accuracy    <       0.00464332 Ry

     iteration #  4     ecut=    70.00 Ry     beta= 0.70
     Davidson diagonalization with overlap
     ethr =  1.93E-05,  avg # of iterations =  2.6

     negative rho (up, down):  8.324E-04 0.000E+00

     total cpu time spent up to now is       57.5 secs

     total energy              =     -49.98795436 Ry
     estimated scf accuracy    <       0.00016484 Ry

     iteration #  5     ecut=    70.00 Ry     beta= 0.70
     Davidson diagonalization with overlap
     c_bands:  1 eigenvalues not converged
     ethr =  6.87E-07,  avg # of iterations =  6.0

     negative rho (up, down):  8.413E-04 0.000E+00

     total cpu time spent up to now is       63.8 secs

     total energy              =     -49.98797385 Ry
     estimated scf accuracy    <       0.00001663 Ry

     iteration #  6     ecut=    70.00 Ry     beta= 0.70
     Davidson diagonalization with overlap
     ethr =  6.93E-08,  avg # of iterations =  2.5

     negative rho (up, down):  8.416E-04 0.000E+00

     total cpu time spent up to now is       79.2 secs

     End of self-consistent calculation

          k = 0.0000 0.0000 0.0000 ( 15117 PWs)   bands (ev):

   -16.1866 -12.0839 -12.0021 -12.0021  -9.7680  -9.7680  -7.6347  -7.0555
    -2.1705  -2.1705  -0.6907  -0.1794  -0.1793   0.0801   0.0801   0.4608

          k = 0.0000 0.1283 0.0000 ( 15162 PWs)   bands (ev):

   -16.1315 -12.7506 -12.0536 -11.3795  -9.8346  -9.6266  -7.3983  -6.9710
    -2.7754  -2.6842  -1.6358  -0.6219  -0.0236   0.6463   0.7341   1.0684

          k = 0.0000 0.2566 0.0000 ( 15148 PWs)   bands (ev):

   -15.9693 -13.4324 -12.1676 -10.9703  -9.7396  -9.2548  -6.9268  -6.7207
    -3.8119  -3.5226  -2.7823  -1.1205  -0.2379   1.6837   1.9086   2.0589

          k = 0.0000 0.3849 0.0000 ( 15168 PWs)   bands (ev):

   -15.7146 -14.0484 -12.2770 -10.9473  -9.2204  -8.7696  -6.6872  -6.3191
    -4.7748  -4.0532  -3.8088  -1.4650  -0.4578   2.7049   3.0781   3.2111

          k = 0.0000 0.5132 0.0000 ( 15154 PWs)   bands (ev):

   -15.4343 -14.5137 -12.3401 -11.0096  -8.6612  -8.3680  -6.8908  -5.8487
    -5.4186  -4.5975  -4.1117  -1.6391  -0.5833   3.2556   3.6241   3.8165

          k = 0.1111 0.1925 0.0000 ( 15171 PWs)   bands (ev):

   -16.0227 -13.2445 -12.1805 -10.9542  -9.8978  -9.3306  -7.0528  -6.8035
    -3.5566  -3.2715  -2.4313  -1.2741   0.3300   1.2033   1.2475   1.7257

          k = 0.1111 0.3208 0.0000 ( 15164 PWs)   bands (ev):

   -15.8121 -13.8204 -12.3659 -10.6605  -9.7014  -8.8479  -6.7478  -6.4753
    -4.3855  -3.9357  -3.3789  -1.8248   0.3332   1.9991   2.0064   3.0385

          k = 0.1111 0.4491 0.0000 ( 15171 PWs)   bands (ev):

   -15.5271 -14.3460 -12.5030 -10.6612  -9.1331  -8.3708  -6.9418  -6.0167
    -4.9731  -4.2586  -4.1895  -2.1345   0.1979   2.7060   3.1360   3.5207

          k = 0.1111 0.5774 0.0000 ( 15160 PWs)   bands (ev):

   -15.3279 -14.6285 -12.5519 -10.6858  -8.7586  -8.1491  -7.2464  -5.6665
    -5.2342  -4.7553  -4.1472  -2.2347   0.1424   3.1252   3.1831   4.1068

          k = 0.2222 0.3849 0.0000 ( 15145 PWs)   bands (ev):

   -15.5624 -14.2562 -12.6442 -10.1724  -9.6465  -8.3512  -7.0085  -6.0799
    -4.5675  -4.3601  -4.0328  -2.5033   1.1259   2.0692   2.3247   3.4341

          k = 0.2222 0.5132 0.0000 ( 15133 PWs)   bands (ev):

   -15.2675 -14.6531 -12.8084 -10.0296  -9.2059  -8.0180  -7.6051  -5.5959
    -4.7277  -4.6737  -4.3276  -2.8342   1.3190   2.6537   2.9072   3.2246

          k = 0.3333 0.5774 0.0000 ( 15147 PWs)   bands (ev):

   -14.9652 -14.9652 -12.9318  -9.4429  -9.4429  -8.0213  -7.8902  -5.1195
    -5.1195  -4.4740  -4.4739  -3.1058   2.4091   2.4091   2.8075   2.8075

     the Fermi energy is    -0.6336 ev

!    total energy              =     -49.98797838 Ry
     estimated scf accuracy    <       0.00000090 Ry
     smearing contrib. (-TS)   =       0.00023087 Ry
     internal energy E=F+TS    =     -49.98820925 Ry

     The total energy is F=E-TS. E is the sum of the following terms:
     one-electron contribution =    -179.10621977 Ry
     hartree contribution      =      94.09553364 Ry
     xc contribution           =     -23.17961001 Ry
     ewald contribution        =      58.20208689 Ry

     convergence has been achieved in   6 iterations

     Writing all to output data dir ../../outdir/borophene.save/

     init_run     :     12.69s CPU      7.92s WALL (       1 calls)
     electrons    :    145.01s CPU     71.23s WALL (       1 calls)

     Called by init_run:
     wfcinit      :     11.30s CPU      6.74s WALL (       1 calls)
     potinit      :      0.31s CPU      0.18s WALL (       1 calls)
     hinit0       :      0.88s CPU      0.75s WALL (       1 calls)

     Called by electrons:
     c_bands      :    119.16s CPU     53.29s WALL (       6 calls)
     sum_band     :     23.54s CPU     16.23s WALL (       6 calls)
     v_of_rho     :      1.74s CPU      1.00s WALL (       7 calls)
     newd         :      0.67s CPU      0.78s WALL (       7 calls)
     mix_rho      :      0.20s CPU      0.16s WALL (       6 calls)

     Called by c_bands:
     init_us_2    :      1.18s CPU      1.01s WALL (     156 calls)
     init_us_2:cp :      1.17s CPU      1.01s WALL (     156 calls)
     cegterg      :    116.64s CPU     51.33s WALL (      72 calls)

     Called by *egterg:
     cdiaghg      :      0.20s CPU      0.14s WALL (     320 calls)
     h_psi        :    113.46s CPU     48.52s WALL (     332 calls)
     s_psi        :      3.38s CPU      2.10s WALL (     332 calls)
     g_psi        :      0.49s CPU      0.43s WALL (     248 calls)

     Called by h_psi:
     h_psi:calbec :      4.81s CPU      3.15s WALL (     332 calls)
     vloc_psi     :    104.72s CPU     68.15s WALL (     332 calls)
     add_vuspsi   :      3.32s CPU    -23.32s WALL (     332 calls)

     General routines
     calbec       :      6.32s CPU      4.17s WALL (     404 calls)
     fft          :      1.22s CPU      0.85s WALL (      77 calls)
     ffts         :      0.06s CPU      0.04s WALL (       6 calls)
     fftw         :    100.35s CPU     68.39s WALL (    8372 calls)

     Parallel routines

     PWSCF        :   2m37.94s CPU   1m19.54s WALL


   This run was terminated on:  11:16:50   3Jul2025            

=------------------------------------------------------------------------------=
   JOB DONE.
=------------------------------------------------------------------------------=
