
     Program PWSCF v.7.2 starts on  3Jul2025 at 11:25:35 

     This program is part of the open-source Quantum ESPRESSO suite
     for quantum simulation of materials; please cite
         "P. Giannozzi et al., J. Phys.:Condens. Matter 21 395502 (2009);
         "P. Giannozzi et al., J. Phys.:Condens. Matter 29 465901 (2017);
         "P. Giannozzi et al., J. Chem. Phys. 152 154105 (2020);
          URL http://www.quantum-espresso.org", 
     in publications or presentations arising from this work. More details at
     http://www.quantum-espresso.org/quote

     Parallel version (MPI & OpenMP), running on       2 processor cores
     Number of MPI processes:                 1
     Threads/MPI process:                     2

     MPI processes distributed on     1 nodes
     424 MiB available memory on the printing compute node when the environment starts

     Reading input from ../latticeparam/alpha_80_9.58.in

     Current dimensions of program PWSCF are:
     Max number of different atomic species (ntypx) = 10
     Max number of k-points (npk) =  40000
     Max angular momentum in pseudopotentials (lmaxx) =  4
     file B.pbesol-n-rrkjus_psl.1.0.0.UPF: wavefunction(s)  2S renormalized

     IMPORTANT: XC functional enforced from input :
     Exchange-correlation= PBESOL
                           (   1   4  10   8   0   0   0)
     Any further DFT definition will be discarded
     Please, verify this is what you really want


     Subspace diagonalization in iterative solution of the eigenvalue problem:
     a serial algorithm will be used


     G-vector sticks info
     --------------------
     sticks:   dense  smooth     PW     G-vecs:    dense   smooth      PW
     Sum        2029    2029    559               147121   147121   21195

     Using Slab Decomposition



     bravais-lattice index     =            4
     lattice parameter (alat)  =       9.5800  a.u.
     unit-cell volume          =    1522.8501 (a.u.)^3
     number of atoms/cell      =            8
     number of atomic types    =            1
     number of electrons       =        24.00
     number of Kohn-Sham states=           16
     kinetic-energy cutoff     =      80.0000  Ry
     charge density cutoff     =     320.0000  Ry
     scf convergence threshold =      1.0E-06
     mixing beta               =       0.7000
     number of iterations used =            8  plain     mixing
     Exchange-correlation= PBESOL
                           (   1   4  10   8   0   0   0)

     celldm(1)=   9.580000  celldm(2)=   0.000000  celldm(3)=   2.000000
     celldm(4)=   0.000000  celldm(5)=   0.000000  celldm(6)=   0.000000

     crystal axes: (cart. coord. in units of alat)
               a(1) = (   1.000000   0.000000   0.000000 )  
               a(2) = (  -0.500000   0.866025   0.000000 )  
               a(3) = (   0.000000   0.000000   2.000000 )  

     reciprocal axes: (cart. coord. in units 2 pi/alat)
               b(1) = (  1.000000  0.577350 -0.000000 )  
               b(2) = (  0.000000  1.154701  0.000000 )  
               b(3) = (  0.000000 -0.000000  0.500000 )  


     PseudoPot. # 1 for B  read from file:
     ../../pseudo/B.pbesol-n-rrkjus_psl.1.0.0.UPF
     MD5 check sum: a3839a09b1a4e02f2a06a66adc9253fc
     Pseudo is Ultrasoft + core correction, Zval =  3.0
     Generated using &quot;atomic&quot; code by A. Dal Corso  v.6.3MaX
     Using radial grid of 1059 points,  4 beta functions with: 
                l(1) =   0
                l(2) =   0
                l(3) =   1
                l(4) =   1
     Q(r) pseudized with 0 coefficients 


     atomic species   valence    mass     pseudopotential
        B              3.00    10.81100     B ( 1.00)

     24 Sym. Ops., with inversion, found



   Cartesian axes

     site n.     atom                  positions (alat units)
         1           B   tau(   1) = (   0.3333330   0.0000000   0.0000000  )
         2           B   tau(   2) = (   0.6666670   0.0000000   0.0000000  )
         3           B   tau(   3) = (  -0.1666665   0.2886748   0.0000000  )
         4           B   tau(   4) = (   0.1666665   0.2886748   0.0000000  )
         5           B   tau(   5) = (   0.5000005   0.2886748   0.0000000  )
         6           B   tau(   6) = (  -0.3333335   0.5773506   0.0000000  )
         7           B   tau(   7) = (  -0.0000005   0.5773506   0.0000000  )
         8           B   tau(   8) = (   0.3333335   0.5773506   0.0000000  )

     number of k points=    12  Marzari-Vanderbilt smearing, width (Ry)=  0.0350
                       cart. coord. in units 2pi/alat
        k(    1) = (   0.0000000   0.0000000   0.0000000), wk =   0.0246914
        k(    2) = (   0.0000000   0.1283001   0.0000000), wk =   0.1481481
        k(    3) = (   0.0000000   0.2566001   0.0000000), wk =   0.1481481
        k(    4) = (   0.0000000   0.3849002   0.0000000), wk =   0.1481481
        k(    5) = (   0.0000000   0.5132002   0.0000000), wk =   0.1481481
        k(    6) = (   0.1111111   0.1924501   0.0000000), wk =   0.1481481
        k(    7) = (   0.1111111   0.3207501   0.0000000), wk =   0.2962963
        k(    8) = (   0.1111111   0.4490502   0.0000000), wk =   0.2962963
        k(    9) = (   0.1111111   0.5773503   0.0000000), wk =   0.1481481
        k(   10) = (   0.2222222   0.3849002   0.0000000), wk =   0.1481481
        k(   11) = (   0.2222222   0.5132002   0.0000000), wk =   0.2962963
        k(   12) = (   0.3333333   0.5773503   0.0000000), wk =   0.0493827

     Dense  grid:   147121 G-vectors     FFT dimensions: (  60,  60, 120)

     Estimated max dynamical RAM per process >     282.11 MB

     Check: negative core charge=   -0.000001

     Initial potential from superposition of free atoms

     starting charge      23.9977, renormalised to      24.0000

     negative rho (up, down):  6.287E-06 0.000E+00
     Starting wfcs are   32 randomized atomic wfcs

     total cpu time spent up to now is        7.8 secs

     per-process dynamical memory:   162.9 Mb

     Self-consistent Calculation

     iteration #  1     ecut=    80.00 Ry     beta= 0.70
     Davidson diagonalization with overlap
     ethr =  1.00E-02,  avg # of iterations =  2.0

     negative rho (up, down):  1.751E-04 0.000E+00

     total cpu time spent up to now is       22.2 secs

     total energy              =     -49.87082539 Ry
     estimated scf accuracy    <       0.68791263 Ry

     iteration #  2     ecut=    80.00 Ry     beta= 0.70
     Davidson diagonalization with overlap
     ethr =  2.87E-03,  avg # of iterations =  2.0

     negative rho (up, down):  3.667E-04 0.000E+00

     total cpu time spent up to now is       23.3 secs

     total energy              =     -49.98275330 Ry
     estimated scf accuracy    <       0.01756930 Ry

     iteration #  3     ecut=    80.00 Ry     beta= 0.70
     Davidson diagonalization with overlap
     ethr =  7.32E-05,  avg # of iterations =  4.7

     negative rho (up, down):  4.389E-04 0.000E+00

     total cpu time spent up to now is       40.1 secs

     total energy              =     -49.98725152 Ry
     estimated scf accuracy    <       0.00463776 Ry

     iteration #  4     ecut=    80.00 Ry     beta= 0.70
     Davidson diagonalization with overlap
     ethr =  1.93E-05,  avg # of iterations =  2.8

     negative rho (up, down):  5.176E-04 0.000E+00

     total cpu time spent up to now is       43.2 secs

     total energy              =     -49.98826629 Ry
     estimated scf accuracy    <       0.00016601 Ry

     iteration #  5     ecut=    80.00 Ry     beta= 0.70
     Davidson diagonalization with overlap
     ethr =  6.92E-07,  avg # of iterations =  7.4

     negative rho (up, down):  5.240E-04 0.000E+00

     total cpu time spent up to now is      116.4 secs

     total energy              =     -49.98828563 Ry
     estimated scf accuracy    <       0.00001626 Ry

     iteration #  6     ecut=    80.00 Ry     beta= 0.70
     Davidson diagonalization with overlap
     ethr =  6.77E-08,  avg # of iterations =  2.2

     negative rho (up, down):  5.241E-04 0.000E+00

     total cpu time spent up to now is      132.1 secs

     End of self-consistent calculation

          k = 0.0000 0.0000 0.0000 ( 18421 PWs)   bands (ev):

   -16.1952 -12.0840 -12.0033 -12.0032  -9.7582  -9.7582  -7.6309  -7.0619
    -2.1405  -2.1405  -0.6665  -0.1539  -0.1539   0.1227   0.1227   0.4901

          k = 0.0000 0.1283 0.0000 ( 18445 PWs)   bands (ev):

   -16.1399 -12.7523 -12.0545 -11.3788  -9.8265  -9.6171  -7.3933  -6.9770
    -2.7467  -2.6555  -1.6167  -0.5984   0.0032   0.6920   0.7794   1.1006

          k = 0.0000 0.2566 0.0000 ( 18424 PWs)   bands (ev):

   -15.9774 -13.4352 -12.1680 -10.9675  -9.7347  -9.2458  -6.9204  -6.7255
    -3.7857  -3.4959  -2.7689  -1.0993  -0.2129   1.7364   1.9604   2.0961

          k = 0.0000 0.3849 0.0000 ( 18410 PWs)   bands (ev):

   -15.7219 -14.0524 -12.2769 -10.9438  -9.2169  -8.7613  -6.6806  -6.3220
    -4.7503  -4.0276  -3.8003  -1.4455  -0.4344   2.7668   3.1383   3.2543

          k = 0.0000 0.5132 0.0000 ( 18396 PWs)   bands (ev):

   -15.4410 -14.5186 -12.3398 -11.0064  -8.6576  -8.3606  -6.8838  -5.8493
    -5.3944  -4.5928  -4.0874  -1.6204  -0.5607   3.3330   3.6910   3.8741

          k = 0.1111 0.1925 0.0000 ( 18441 PWs)   bands (ev):

   -16.0309 -13.2469 -12.1810 -10.9523  -9.8915  -9.3220  -7.0466  -6.8087
    -3.5292  -3.2451  -2.4161  -1.2540   0.3588   1.2349   1.2987   1.7750

          k = 0.1111 0.3208 0.0000 ( 18400 PWs)   bands (ev):

   -15.8198 -13.8239 -12.3662 -10.6568  -9.6967  -8.8404  -6.7413  -6.4789
    -4.3597  -3.9108  -3.3681  -1.8075   0.3614   2.0349   2.0658   3.0324

          k = 0.1111 0.4491 0.0000 ( 18372 PWs)   bands (ev):

   -15.5341 -14.3505 -12.5033 -10.6572  -9.1282  -8.3645  -6.9345  -6.0182
    -4.9495  -4.2521  -4.1652  -2.1187   0.2250   2.7746   3.1783   3.5759

          k = 0.1111 0.5774 0.0000 ( 18386 PWs)   bands (ev):

   -15.3343 -14.6336 -12.5522 -10.6818  -8.7534  -8.1436  -7.2384  -5.6662
    -5.2110  -4.7513  -4.1237  -2.2194   0.1690   3.1978   3.2619   4.1553

          k = 0.2222 0.3849 0.0000 ( 18388 PWs)   bands (ev):

   -15.5694 -14.2604 -12.6448 -10.1674  -9.6417  -8.3454  -7.0010  -6.0817
    -4.5431  -4.3370  -4.0250  -2.4896   1.1586   2.1047   2.3925   3.4884

          k = 0.2222 0.5132 0.0000 ( 18399 PWs)   bands (ev):

   -15.2738 -14.6581 -12.8093 -10.0243  -9.2001  -8.0133  -7.5972  -5.5953
    -4.7051  -4.6690  -4.3048  -2.8223   1.3522   2.7282   2.9484   3.3041

          k = 0.3333 0.5774 0.0000 ( 18378 PWs)   bands (ev):

   -14.9709 -14.9708 -12.9331  -9.4367  -9.4366  -8.0141  -7.8861  -5.1168
    -5.1167  -4.4516  -4.4516  -3.0953   2.4484   2.4484   2.8853   2.8853

     the Fermi energy is    -0.6097 ev

!    total energy              =     -49.98829007 Ry
     estimated scf accuracy    <       0.00000089 Ry
     smearing contrib. (-TS)   =       0.00020680 Ry
     internal energy E=F+TS    =     -49.98849687 Ry

     The total energy is F=E-TS. E is the sum of the following terms:
     one-electron contribution =    -179.33947271 Ry
     hartree contribution      =      94.23808031 Ry
     xc contribution           =     -23.21069885 Ry
     ewald contribution        =      58.32359438 Ry

     convergence has been achieved in   6 iterations

     Writing all to output data dir ../../outdir/borophene.save/

     init_run     :     11.00s CPU      7.73s WALL (       1 calls)
     electrons    :    130.02s CPU    124.26s WALL (       1 calls)

     Called by init_run:
     wfcinit      :      9.55s CPU      6.40s WALL (       1 calls)
     potinit      :      0.25s CPU      0.19s WALL (       1 calls)
     hinit0       :      1.02s CPU      0.91s WALL (       1 calls)

     Called by electrons:
     c_bands      :    106.26s CPU    106.33s WALL (       6 calls)
     sum_band     :     21.68s CPU     16.15s WALL (       6 calls)
     v_of_rho     :      1.51s CPU      1.08s WALL (       7 calls)
     newd         :      0.62s CPU      0.76s WALL (       7 calls)
     mix_rho      :      0.20s CPU      0.17s WALL (       6 calls)

     Called by c_bands:
     init_us_2    :      1.13s CPU      1.00s WALL (     156 calls)
     init_us_2:cp :      1.13s CPU      1.00s WALL (     156 calls)
     cegterg      :    104.29s CPU    104.75s WALL (      72 calls)

     Called by *egterg:
     cdiaghg      :      0.19s CPU      0.12s WALL (     326 calls)
     h_psi        :    104.32s CPU    104.82s WALL (     338 calls)
     s_psi        :      2.34s CPU      1.32s WALL (     338 calls)
     g_psi        :      0.25s CPU      0.25s WALL (     254 calls)

     Called by h_psi:
     h_psi:calbec :      2.54s CPU      2.18s WALL (     338 calls)
     vloc_psi     :     99.21s CPU    101.06s WALL (     338 calls)
     add_vuspsi   :      2.21s CPU      1.22s WALL (     338 calls)

     General routines
     calbec       :      3.40s CPU      2.85s WALL (     410 calls)
     fft          :      1.28s CPU      1.07s WALL (      77 calls)
     ffts         :      0.06s CPU      0.05s WALL (       6 calls)
     fftw         :     95.67s CPU     56.96s WALL (    8388 calls)

     Parallel routines

     PWSCF        :   2m21.15s CPU   2m12.27s WALL


   This run was terminated on:  11:27:48   3Jul2025            

=------------------------------------------------------------------------------=
   JOB DONE.
=------------------------------------------------------------------------------=
