
     Program PWSCF v.7.2 starts on  3Jul2025 at 11:49: 2 

     This program is part of the open-source Quantum ESPRESSO suite
     for quantum simulation of materials; please cite
         "P. Giannozzi et al., J. Phys.:Condens. Matter 21 395502 (2009);
         "P. Giannozzi et al., J. Phys.:Condens. Matter 29 465901 (2017);
         "P. Giannozzi et al., J. Chem. Phys. 152 154105 (2020);
          URL http://www.quantum-espresso.org", 
     in publications or presentations arising from this work. More details at
     http://www.quantum-espresso.org/quote

     Parallel version (MPI & OpenMP), running on       2 processor cores
     Number of MPI processes:                 1
     Threads/MPI process:                     2

     MPI processes distributed on     1 nodes
     410 MiB available memory on the printing compute node when the environment starts

     Reading input from ../latticeparam/alpha_7_9.6.in

     Current dimensions of program PWSCF are:
     Max number of different atomic species (ntypx) = 10
     Max number of k-points (npk) =  40000
     Max angular momentum in pseudopotentials (lmaxx) =  4
     file B.pbesol-n-rrkjus_psl.1.0.0.UPF: wavefunction(s)  2S renormalized

     IMPORTANT: XC functional enforced from input :
     Exchange-correlation= PBESOL
                           (   1   4  10   8   0   0   0)
     Any further DFT definition will be discarded
     Please, verify this is what you really want


     Subspace diagonalization in iterative solution of the eigenvalue problem:
     a serial algorithm will be used


     G-vector sticks info
     --------------------
     sticks:   dense  smooth     PW     G-vecs:    dense   smooth      PW
     Sum        1789    1789    499               121627   121627   17423

     Using Slab Decomposition



     bravais-lattice index     =            4
     lattice parameter (alat)  =       9.6000  a.u.
     unit-cell volume          =    1532.4077 (a.u.)^3
     number of atoms/cell      =            8
     number of atomic types    =            1
     number of electrons       =        24.00
     number of Kohn-Sham states=           16
     kinetic-energy cutoff     =      70.0000  Ry
     charge density cutoff     =     280.0000  Ry
     scf convergence threshold =      1.0E-06
     mixing beta               =       0.7000
     number of iterations used =            8  plain     mixing
     Exchange-correlation= PBESOL
                           (   1   4  10   8   0   0   0)

     celldm(1)=   9.600000  celldm(2)=   0.000000  celldm(3)=   2.000000
     celldm(4)=   0.000000  celldm(5)=   0.000000  celldm(6)=   0.000000

     crystal axes: (cart. coord. in units of alat)
               a(1) = (   1.000000   0.000000   0.000000 )  
               a(2) = (  -0.500000   0.866025   0.000000 )  
               a(3) = (   0.000000   0.000000   2.000000 )  

     reciprocal axes: (cart. coord. in units 2 pi/alat)
               b(1) = (  1.000000  0.577350 -0.000000 )  
               b(2) = (  0.000000  1.154701  0.000000 )  
               b(3) = (  0.000000 -0.000000  0.500000 )  


     PseudoPot. # 1 for B  read from file:
     ../../pseudo/B.pbesol-n-rrkjus_psl.1.0.0.UPF
     MD5 check sum: a3839a09b1a4e02f2a06a66adc9253fc
     Pseudo is Ultrasoft + core correction, Zval =  3.0
     Generated using &quot;atomic&quot; code by A. Dal Corso  v.6.3MaX
     Using radial grid of 1059 points,  4 beta functions with: 
                l(1) =   0
                l(2) =   0
                l(3) =   1
                l(4) =   1
     Q(r) pseudized with 0 coefficients 


     atomic species   valence    mass     pseudopotential
        B              3.00    10.81100     B ( 1.00)

     24 Sym. Ops., with inversion, found



   Cartesian axes

     site n.     atom                  positions (alat units)
         1           B   tau(   1) = (   0.3333330   0.0000000   0.0000000  )
         2           B   tau(   2) = (   0.6666670   0.0000000   0.0000000  )
         3           B   tau(   3) = (  -0.1666665   0.2886748   0.0000000  )
         4           B   tau(   4) = (   0.1666665   0.2886748   0.0000000  )
         5           B   tau(   5) = (   0.5000005   0.2886748   0.0000000  )
         6           B   tau(   6) = (  -0.3333335   0.5773506   0.0000000  )
         7           B   tau(   7) = (  -0.0000005   0.5773506   0.0000000  )
         8           B   tau(   8) = (   0.3333335   0.5773506   0.0000000  )

     number of k points=     8  Marzari-Vanderbilt smearing, width (Ry)=  0.0350
                       cart. coord. in units 2pi/alat
        k(    1) = (   0.0000000   0.0000000   0.0000000), wk =   0.0408163
        k(    2) = (   0.0000000   0.1649572   0.0000000), wk =   0.2448980
        k(    3) = (   0.0000000   0.3299144   0.0000000), wk =   0.2448980
        k(    4) = (   0.0000000   0.4948717   0.0000000), wk =   0.2448980
        k(    5) = (   0.1428571   0.2474358   0.0000000), wk =   0.2448980
        k(    6) = (   0.1428571   0.4123930   0.0000000), wk =   0.4897959
        k(    7) = (   0.1428571   0.5773503   0.0000000), wk =   0.2448980
        k(    8) = (   0.2857143   0.4948717   0.0000000), wk =   0.2448980

     Dense  grid:   121627 G-vectors     FFT dimensions: (  54,  54, 108)

     Estimated max dynamical RAM per process >     215.33 MB

     Initial potential from superposition of free atoms

     starting charge      23.9977, renormalised to      24.0000

     negative rho (up, down):  4.477E-05 0.000E+00
     Starting wfcs are   32 randomized atomic wfcs

     total cpu time spent up to now is        5.5 secs

     per-process dynamical memory:   115.8 Mb

     Self-consistent Calculation

     iteration #  1     ecut=    70.00 Ry     beta= 0.70
     Davidson diagonalization with overlap
     ethr =  1.00E-02,  avg # of iterations =  2.0

     negative rho (up, down):  3.555E-04 0.000E+00

     total cpu time spent up to now is        2.8 secs

     total energy              =     -49.87180249 Ry
     estimated scf accuracy    <       0.67660992 Ry

     iteration #  2     ecut=    70.00 Ry     beta= 0.70
     Davidson diagonalization with overlap
     ethr =  2.82E-03,  avg # of iterations =  2.0

     negative rho (up, down):  6.321E-04 0.000E+00

     total cpu time spent up to now is       69.2 secs

     total energy              =     -49.98167445 Ry
     estimated scf accuracy    <       0.01715833 Ry

     iteration #  3     ecut=    70.00 Ry     beta= 0.70
     Davidson diagonalization with overlap
     ethr =  7.15E-05,  avg # of iterations =  5.0

     negative rho (up, down):  7.287E-04 0.000E+00

     total cpu time spent up to now is       80.2 secs

     total energy              =     -49.98599512 Ry
     estimated scf accuracy    <       0.00474268 Ry

     iteration #  4     ecut=    70.00 Ry     beta= 0.70
     Davidson diagonalization with overlap
     ethr =  1.98E-05,  avg # of iterations =  2.8

     negative rho (up, down):  8.309E-04 0.000E+00

     total cpu time spent up to now is       88.0 secs

     total energy              =     -49.98703769 Ry
     estimated scf accuracy    <       0.00016930 Ry

     iteration #  5     ecut=    70.00 Ry     beta= 0.70
     Davidson diagonalization with overlap
     ethr =  7.05E-07,  avg # of iterations =  5.1

     negative rho (up, down):  8.412E-04 0.000E+00

     total cpu time spent up to now is       88.0 secs

     total energy              =     -49.98705805 Ry
     estimated scf accuracy    <       0.00001594 Ry

     iteration #  6     ecut=    70.00 Ry     beta= 0.70
     Davidson diagonalization with overlap
     ethr =  6.64E-08,  avg # of iterations =  2.5

     negative rho (up, down):  8.416E-04 0.000E+00

     total cpu time spent up to now is       97.9 secs

     End of self-consistent calculation

          k = 0.0000 0.0000 0.0000 ( 15117 PWs)   bands (ev):

   -16.1865 -12.0838 -12.0019 -12.0019  -9.7677  -9.7676  -7.6344  -7.0554
    -2.1701  -2.1701  -0.6910  -0.1792  -0.1791   0.0802   0.0802   0.4611

          k = 0.0000 0.1650 0.0000 ( 15146 PWs)   bands (ev):

   -16.0956 -12.9494 -12.0828 -11.2220  -9.8468  -9.5392  -7.2685  -6.9160
    -3.0622  -2.9267  -1.9701  -0.7771  -0.0720   0.9271   1.0527   1.3317

          k = 0.0000 0.3299 0.0000 ( 15150 PWs)   bands (ev):

   -15.8330 -13.7956 -12.2338 -10.9283  -9.4769  -8.9816  -6.7305  -6.5076
    -4.3853  -3.8894  -3.3887  -1.3375  -0.3715   2.2859   2.5935   2.7005

          k = 0.0000 0.4949 0.0000 ( 15162 PWs)   bands (ev):

   -15.4681 -14.4644 -12.3345 -11.0030  -8.7222  -8.4080  -6.8533  -5.9091
    -5.3582  -4.5108  -4.1168  -1.6246  -0.5726   3.2563   3.6146   3.7147

          k = 0.1429 0.2474 0.0000 ( 15167 PWs)   bands (ev):

   -15.9180 -13.5598 -12.2969 -10.7096  -9.8847  -9.0658  -6.8456  -6.6412
    -4.0403  -3.6539  -2.9380  -1.6569   0.5071   1.4415   1.6363   2.4677

          k = 0.1429 0.4124 0.0000 ( 15146 PWs)   bands (ev):

   -15.5867 -14.2363 -12.5467 -10.4895  -9.4014  -8.4234  -6.9097  -6.1168
    -4.7577  -4.2264  -4.0465  -2.2596   0.5391   2.4443   2.5758   3.3953

          k = 0.1429 0.5774 0.0000 ( 15134 PWs)   bands (ev):

   -15.2980 -14.6506 -12.6410 -10.5111  -8.8462  -8.0923  -7.3865  -5.6217
    -5.0992  -4.7634  -4.1787  -2.4446   0.4662   2.9781   3.1634   3.8455

          k = 0.2857 0.4949 0.0000 ( 15147 PWs)   bands (ev):

   -15.2164 -14.7019 -12.8681  -9.7567  -9.3748  -7.9711  -7.7400  -5.5199
    -4.7191  -4.5479  -4.4441  -2.9713   1.8020   2.5473   2.6127   3.1647

     the Fermi energy is    -0.6293 ev

!    total energy              =     -49.98706235 Ry
     estimated scf accuracy    <       0.00000048 Ry
     smearing contrib. (-TS)   =      -0.00119974 Ry
     internal energy E=F+TS    =     -49.98586261 Ry

     The total energy is F=E-TS. E is the sum of the following terms:
     one-electron contribution =    -179.10458783 Ry
     hartree contribution      =      94.09642232 Ry
     xc contribution           =     -23.17978399 Ry
     ewald contribution        =      58.20208689 Ry

     convergence has been achieved in   6 iterations

     Writing all to output data dir ../../outdir/borophene.save/

     init_run     :      6.77s CPU      5.46s WALL (       1 calls)
     electrons    :     73.39s CPU     92.41s WALL (       1 calls)

     Called by init_run:
     wfcinit      :      5.64s CPU      4.34s WALL (       1 calls)
     potinit      :      0.20s CPU      0.16s WALL (       1 calls)
     hinit0       :      0.77s CPU      0.70s WALL (       1 calls)

     Called by electrons:
     c_bands      :     58.89s CPU     80.57s WALL (       6 calls)
     sum_band     :     12.93s CPU     10.41s WALL (       6 calls)
     v_of_rho     :      1.16s CPU      0.87s WALL (       7 calls)
     newd         :      0.50s CPU      0.67s WALL (       7 calls)
     mix_rho      :      0.12s CPU      0.13s WALL (       6 calls)

     Called by c_bands:
     init_us_2    :      0.58s CPU      0.55s WALL (     104 calls)
     init_us_2:cp :      0.58s CPU      0.55s WALL (     104 calls)
     cegterg      :     57.90s CPU     79.73s WALL (      48 calls)

     Called by *egterg:
     cdiaghg      :      0.12s CPU      0.09s WALL (     203 calls)
     h_psi        :     58.34s CPU     80.17s WALL (     211 calls)
     s_psi        :      1.18s CPU      0.79s WALL (     211 calls)
     g_psi        :      0.14s CPU      0.16s WALL (     155 calls)

     Called by h_psi:
     h_psi:calbec :      1.50s CPU      1.48s WALL (     211 calls)
     vloc_psi     :     55.45s CPU     77.78s WALL (     211 calls)
     add_vuspsi   :      1.18s CPU      0.71s WALL (     211 calls)

     General routines
     calbec       :      1.98s CPU      1.89s WALL (     259 calls)
     fft          :      0.97s CPU      0.85s WALL (      77 calls)
     ffts         :      0.03s CPU      0.03s WALL (       6 calls)
     fftw         :     57.04s CPU     78.84s WALL (    5554 calls)

     Parallel routines

     PWSCF        :   1m20.25s CPU   1m38.08s WALL


   This run was terminated on:  11:50:40   3Jul2025            

=------------------------------------------------------------------------------=
   JOB DONE.
=------------------------------------------------------------------------------=
