
     Program PWSCF v.7.2 starts on  3Jul2025 at 11: 8: 3 

     This program is part of the open-source Quantum ESPRESSO suite
     for quantum simulation of materials; please cite
         "P. Giannozzi et al., J. Phys.:Condens. Matter 21 395502 (2009);
         "P. Giannozzi et al., J. Phys.:Condens. Matter 29 465901 (2017);
         "P. Giannozzi et al., J. Chem. Phys. 152 154105 (2020);
          URL http://www.quantum-espresso.org", 
     in publications or presentations arising from this work. More details at
     http://www.quantum-espresso.org/quote

     Parallel version (MPI & OpenMP), running on       2 processor cores
     Number of MPI processes:                 1
     Threads/MPI process:                     2

     MPI processes distributed on     1 nodes
     379 MiB available memory on the printing compute node when the environment starts

     Reading input from ../latticeparam/alpha_70_9.52.in

     Current dimensions of program PWSCF are:
     Max number of different atomic species (ntypx) = 10
     Max number of k-points (npk) =  40000
     Max angular momentum in pseudopotentials (lmaxx) =  4
     file B.pbesol-n-rrkjus_psl.1.0.0.UPF: wavefunction(s)  2S renormalized

     IMPORTANT: XC functional enforced from input :
     Exchange-correlation= PBESOL
                           (   1   4  10   8   0   0   0)
     Any further DFT definition will be discarded
     Please, verify this is what you really want


     Subspace diagonalization in iterative solution of the eigenvalue problem:
     a serial algorithm will be used


     G-vector sticks info
     --------------------
     sticks:   dense  smooth     PW     G-vecs:    dense   smooth      PW
     Sum        1759    1759    499               118475   118475   17207

     Using Slab Decomposition



     bravais-lattice index     =            4
     lattice parameter (alat)  =       9.5200  a.u.
     unit-cell volume          =    1494.4159 (a.u.)^3
     number of atoms/cell      =            8
     number of atomic types    =            1
     number of electrons       =        24.00
     number of Kohn-Sham states=           16
     kinetic-energy cutoff     =      70.0000  Ry
     charge density cutoff     =     280.0000  Ry
     scf convergence threshold =      1.0E-06
     mixing beta               =       0.7000
     number of iterations used =            8  plain     mixing
     Exchange-correlation= PBESOL
                           (   1   4  10   8   0   0   0)

     celldm(1)=   9.520000  celldm(2)=   0.000000  celldm(3)=   2.000000
     celldm(4)=   0.000000  celldm(5)=   0.000000  celldm(6)=   0.000000

     crystal axes: (cart. coord. in units of alat)
               a(1) = (   1.000000   0.000000   0.000000 )  
               a(2) = (  -0.500000   0.866025   0.000000 )  
               a(3) = (   0.000000   0.000000   2.000000 )  

     reciprocal axes: (cart. coord. in units 2 pi/alat)
               b(1) = (  1.000000  0.577350 -0.000000 )  
               b(2) = (  0.000000  1.154701  0.000000 )  
               b(3) = (  0.000000 -0.000000  0.500000 )  


     PseudoPot. # 1 for B  read from file:
     ../../pseudo/B.pbesol-n-rrkjus_psl.1.0.0.UPF
     MD5 check sum: a3839a09b1a4e02f2a06a66adc9253fc
     Pseudo is Ultrasoft + core correction, Zval =  3.0
     Generated using &quot;atomic&quot; code by A. Dal Corso  v.6.3MaX
     Using radial grid of 1059 points,  4 beta functions with: 
                l(1) =   0
                l(2) =   0
                l(3) =   1
                l(4) =   1
     Q(r) pseudized with 0 coefficients 


     atomic species   valence    mass     pseudopotential
        B              3.00    10.81100     B ( 1.00)

     24 Sym. Ops., with inversion, found



   Cartesian axes

     site n.     atom                  positions (alat units)
         1           B   tau(   1) = (   0.3333330   0.0000000   0.0000000  )
         2           B   tau(   2) = (   0.6666670   0.0000000   0.0000000  )
         3           B   tau(   3) = (  -0.1666665   0.2886748   0.0000000  )
         4           B   tau(   4) = (   0.1666665   0.2886748   0.0000000  )
         5           B   tau(   5) = (   0.5000005   0.2886748   0.0000000  )
         6           B   tau(   6) = (  -0.3333335   0.5773506   0.0000000  )
         7           B   tau(   7) = (  -0.0000005   0.5773506   0.0000000  )
         8           B   tau(   8) = (   0.3333335   0.5773506   0.0000000  )

     number of k points=    12  Marzari-Vanderbilt smearing, width (Ry)=  0.0350
                       cart. coord. in units 2pi/alat
        k(    1) = (   0.0000000   0.0000000   0.0000000), wk =   0.0246914
        k(    2) = (   0.0000000   0.1283001   0.0000000), wk =   0.1481481
        k(    3) = (   0.0000000   0.2566001   0.0000000), wk =   0.1481481
        k(    4) = (   0.0000000   0.3849002   0.0000000), wk =   0.1481481
        k(    5) = (   0.0000000   0.5132002   0.0000000), wk =   0.1481481
        k(    6) = (   0.1111111   0.1924501   0.0000000), wk =   0.1481481
        k(    7) = (   0.1111111   0.3207501   0.0000000), wk =   0.2962963
        k(    8) = (   0.1111111   0.4490502   0.0000000), wk =   0.2962963
        k(    9) = (   0.1111111   0.5773503   0.0000000), wk =   0.1481481
        k(   10) = (   0.2222222   0.3849002   0.0000000), wk =   0.1481481
        k(   11) = (   0.2222222   0.5132002   0.0000000), wk =   0.2962963
        k(   12) = (   0.3333333   0.5773503   0.0000000), wk =   0.0493827

     Dense  grid:   118475 G-vectors     FFT dimensions: (  54,  54, 108)

     Estimated max dynamical RAM per process >     224.81 MB

     Initial potential from superposition of free atoms

     starting charge      23.9977, renormalised to      24.0000

     negative rho (up, down):  3.439E-05 0.000E+00
     Starting wfcs are   32 randomized atomic wfcs

     total cpu time spent up to now is        8.0 secs

     per-process dynamical memory:   130.4 Mb

     Self-consistent Calculation

     iteration #  1     ecut=    70.00 Ry     beta= 0.70
     Davidson diagonalization with overlap
     ethr =  1.00E-02,  avg # of iterations =  2.0

     negative rho (up, down):  3.622E-04 0.000E+00

     total cpu time spent up to now is       72.6 secs

     total energy              =     -49.86218257 Ry
     estimated scf accuracy    <       0.72633191 Ry

     iteration #  2     ecut=    70.00 Ry     beta= 0.70
     Davidson diagonalization with overlap
     ethr =  3.03E-03,  avg # of iterations =  2.0

     negative rho (up, down):  6.417E-04 0.000E+00

     total cpu time spent up to now is       86.9 secs

     total energy              =     -49.98079048 Ry
     estimated scf accuracy    <       0.01908680 Ry

     iteration #  3     ecut=    70.00 Ry     beta= 0.70
     Davidson diagonalization with overlap
     ethr =  7.95E-05,  avg # of iterations =  5.1

     negative rho (up, down):  7.471E-04 0.000E+00

     total cpu time spent up to now is       93.1 secs

     total energy              =     -49.98572492 Ry
     estimated scf accuracy    <       0.00491067 Ry

     iteration #  4     ecut=    70.00 Ry     beta= 0.70
     Davidson diagonalization with overlap
     ethr =  2.05E-05,  avg # of iterations =  3.8

     negative rho (up, down):  8.595E-04 0.000E+00

     total cpu time spent up to now is      108.4 secs

     total energy              =     -49.98679447 Ry
     estimated scf accuracy    <       0.00016981 Ry

     iteration #  5     ecut=    70.00 Ry     beta= 0.70
     Davidson diagonalization with overlap
     c_bands:  1 eigenvalues not converged
     ethr =  7.08E-07,  avg # of iterations =  5.5

     negative rho (up, down):  8.691E-04 0.000E+00

     total cpu time spent up to now is      126.8 secs

     total energy              =     -49.98681474 Ry
     estimated scf accuracy    <       0.00001632 Ry

     iteration #  6     ecut=    70.00 Ry     beta= 0.70
     Davidson diagonalization with overlap
     ethr =  6.80E-08,  avg # of iterations =  2.6

     negative rho (up, down):  8.692E-04 0.000E+00

     total cpu time spent up to now is      141.7 secs

     End of self-consistent calculation

          k = 0.0000 0.0000 0.0000 ( 14787 PWs)   bands (ev):

   -16.2213 -12.0834 -12.0060 -12.0059  -9.7280  -9.7279  -7.6194  -7.0821
    -2.0481  -2.0481  -0.5941  -0.0778  -0.0778   0.2525   0.2526   0.5781

          k = 0.0000 0.1283 0.0000 ( 14800 PWs)   bands (ev):

   -16.1656 -12.7566 -12.0564 -11.3757  -9.8015  -9.5876  -7.3779  -6.9961
    -2.6586  -2.5676  -1.5599  -0.5281   0.0832   0.8311   0.9175   1.1970

          k = 0.0000 0.2566 0.0000 ( 14816 PWs)   bands (ev):

   -16.0018 -13.4431 -12.1683 -10.9584  -9.7194  -9.2177  -6.9006  -6.7410
    -3.7052  -3.4141  -2.7290  -1.0362  -0.1384   1.8965   2.1180   2.2076

          k = 0.0000 0.3849 0.0000 ( 14786 PWs)   bands (ev):

   -15.7443 -14.0638 -12.2761 -10.9329  -9.2050  -8.7349  -6.6602  -6.3318
    -4.6751  -3.9495  -3.7753  -1.3873  -0.3648   2.9508   3.3214   3.3840

          k = 0.0000 0.5132 0.0000 ( 14770 PWs)   bands (ev):

   -15.4612 -14.5332 -12.3385 -10.9963  -8.6454  -8.3366  -6.8620  -5.8522
    -5.3204  -4.5795  -4.0134  -1.5647  -0.4938   3.5608   3.8451   3.9624

          k = 0.1111 0.1925 0.0000 ( 14781 PWs)   bands (ev):

   -16.0557 -13.2538 -12.1818 -10.9452  -9.8718  -9.2949  -7.0275  -6.8254
    -3.4452  -3.1638  -2.3708  -1.1942   0.4452   1.3294   1.4542   1.9252

          k = 0.1111 0.3208 0.0000 ( 14774 PWs)   bands (ev):

   -15.8429 -13.8339 -12.3665 -10.6448  -9.6817  -8.8167  -6.7207  -6.4910
    -4.2808  -3.8346  -3.3366  -1.7563   0.4458   2.1421   2.2457   3.0469

          k = 0.1111 0.4491 0.0000 ( 14777 PWs)   bands (ev):

   -15.5550 -14.3638 -12.5036 -10.6445  -9.1122  -8.3442  -6.9114  -6.0236
    -4.8774  -4.2334  -4.0911  -2.0721   0.3058   2.9810   3.3048   3.6021

          k = 0.1111 0.5774 0.0000 ( 14762 PWs)   bands (ev):

   -15.3537 -14.6488 -12.5525 -10.6694  -8.7361  -8.1254  -7.2137  -5.6663
    -5.1403  -4.7401  -4.0518  -2.1743   0.2486   3.4164   3.4994   4.2497

          k = 0.2222 0.3849 0.0000 ( 14783 PWs)   bands (ev):

   -15.5907 -14.2729 -12.6463 -10.1512  -9.6264  -8.3263  -6.9777  -6.0881
    -4.4687  -4.2661  -4.0025  -2.4494   1.2569   2.2107   2.5972   3.5096

          k = 0.2222 0.5132 0.0000 ( 14753 PWs)   bands (ev):

   -15.2928 -14.6731 -12.8119 -10.0074  -9.1814  -7.9975  -7.5730  -5.5947
    -4.6557  -4.6360  -4.2350  -2.7872   1.4516   2.9533   3.0718   3.5434

          k = 0.3333 0.5774 0.0000 ( 14793 PWs)   bands (ev):

   -14.9878 -14.9877 -12.9367  -9.4166  -9.4166  -7.9922  -7.8717  -5.1093
    -5.1093  -4.3833  -4.3832  -3.0648   2.5664   2.5664   3.1207   3.1207

     the Fermi energy is    -0.5385 ev

!    total energy              =     -49.98681933 Ry
     estimated scf accuracy    <       0.00000087 Ry
     smearing contrib. (-TS)   =       0.00013485 Ry
     internal energy E=F+TS    =     -49.98695417 Ry

     The total energy is F=E-TS. E is the sum of the following terms:
     one-electron contribution =    -180.03710311 Ry
     hartree contribution      =      94.66495329 Ry
     xc contribution           =     -23.30598441 Ry
     ewald contribution        =      58.69118006 Ry

     convergence has been achieved in   6 iterations

     Writing all to output data dir ../../outdir/borophene.save/

     init_run     :     12.85s CPU      7.89s WALL (       1 calls)
     electrons    :    145.34s CPU    133.74s WALL (       1 calls)

     Called by init_run:
     wfcinit      :     11.52s CPU      6.75s WALL (       1 calls)
     potinit      :      0.27s CPU      0.17s WALL (       1 calls)
     hinit0       :      0.85s CPU      0.73s WALL (       1 calls)

     Called by electrons:
     c_bands      :    119.75s CPU     66.21s WALL (       6 calls)
     sum_band     :     23.39s CPU     65.89s WALL (       6 calls)
     v_of_rho     :      1.66s CPU      0.98s WALL (       7 calls)
     newd         :      0.63s CPU      0.72s WALL (       7 calls)
     mix_rho      :      0.19s CPU      0.15s WALL (       6 calls)

     Called by c_bands:
     init_us_2    :      1.18s CPU      0.96s WALL (     156 calls)
     init_us_2:cp :      1.18s CPU      0.96s WALL (     156 calls)
     cegterg      :    117.24s CPU     64.27s WALL (      72 calls)

     Called by *egterg:
     cdiaghg      :      0.20s CPU      0.13s WALL (     324 calls)
     h_psi        :    114.21s CPU     61.61s WALL (     336 calls)
     s_psi        :      3.52s CPU      2.14s WALL (     336 calls)
     g_psi        :      0.49s CPU      0.43s WALL (     252 calls)

     Called by h_psi:
     h_psi:calbec :      4.99s CPU      3.07s WALL (     336 calls)
     vloc_psi     :    105.29s CPU     56.18s WALL (     336 calls)
     add_vuspsi   :      3.35s CPU      1.81s WALL (     336 calls)

     General routines
     calbec       :      6.44s CPU      4.04s WALL (     408 calls)
     fft          :      1.21s CPU      0.89s WALL (      77 calls)
     ffts         :      0.06s CPU      0.04s WALL (       6 calls)
     fftw         :    101.26s CPU    106.54s WALL (    8390 calls)

     Parallel routines

     PWSCF        :   2m38.39s CPU   2m21.94s WALL


   This run was terminated on:  11:10:24   3Jul2025            

=------------------------------------------------------------------------------=
   JOB DONE.
=------------------------------------------------------------------------------=
