
     Program PWSCF v.7.2 starts on  3Jul2025 at 11:22:19 

     This program is part of the open-source Quantum ESPRESSO suite
     for quantum simulation of materials; please cite
         "P. Giannozzi et al., J. Phys.:Condens. Matter 21 395502 (2009);
         "P. Giannozzi et al., J. Phys.:Condens. Matter 29 465901 (2017);
         "P. Giannozzi et al., J. Chem. Phys. 152 154105 (2020);
          URL http://www.quantum-espresso.org", 
     in publications or presentations arising from this work. More details at
     http://www.quantum-espresso.org/quote

     Parallel version (MPI & OpenMP), running on       2 processor cores
     Number of MPI processes:                 1
     Threads/MPI process:                     2

     MPI processes distributed on     1 nodes
     424 MiB available memory on the printing compute node when the environment starts

     Reading input from ../latticeparam/alpha_80_9.54.in

     Current dimensions of program PWSCF are:
     Max number of different atomic species (ntypx) = 10
     Max number of k-points (npk) =  40000
     Max angular momentum in pseudopotentials (lmaxx) =  4
     file B.pbesol-n-rrkjus_psl.1.0.0.UPF: wavefunction(s)  2S renormalized

     IMPORTANT: XC functional enforced from input :
     Exchange-correlation= PBESOL
                           (   1   4  10   8   0   0   0)
     Any further DFT definition will be discarded
     Please, verify this is what you really want


     Subspace diagonalization in iterative solution of the eigenvalue problem:
     a serial algorithm will be used


     G-vector sticks info
     --------------------
     sticks:   dense  smooth     PW     G-vecs:    dense   smooth      PW
     Sum        2017    2017    559               145297   145297   21075

     Using Slab Decomposition



     bravais-lattice index     =            4
     lattice parameter (alat)  =       9.5400  a.u.
     unit-cell volume          =    1503.8543 (a.u.)^3
     number of atoms/cell      =            8
     number of atomic types    =            1
     number of electrons       =        24.00
     number of Kohn-Sham states=           16
     kinetic-energy cutoff     =      80.0000  Ry
     charge density cutoff     =     320.0000  Ry
     scf convergence threshold =      1.0E-06
     mixing beta               =       0.7000
     number of iterations used =            8  plain     mixing
     Exchange-correlation= PBESOL
                           (   1   4  10   8   0   0   0)

     celldm(1)=   9.540000  celldm(2)=   0.000000  celldm(3)=   2.000000
     celldm(4)=   0.000000  celldm(5)=   0.000000  celldm(6)=   0.000000

     crystal axes: (cart. coord. in units of alat)
               a(1) = (   1.000000   0.000000   0.000000 )  
               a(2) = (  -0.500000   0.866025   0.000000 )  
               a(3) = (   0.000000   0.000000   2.000000 )  

     reciprocal axes: (cart. coord. in units 2 pi/alat)
               b(1) = (  1.000000  0.577350 -0.000000 )  
               b(2) = (  0.000000  1.154701  0.000000 )  
               b(3) = (  0.000000 -0.000000  0.500000 )  


     PseudoPot. # 1 for B  read from file:
     ../../pseudo/B.pbesol-n-rrkjus_psl.1.0.0.UPF
     MD5 check sum: a3839a09b1a4e02f2a06a66adc9253fc
     Pseudo is Ultrasoft + core correction, Zval =  3.0
     Generated using &quot;atomic&quot; code by A. Dal Corso  v.6.3MaX
     Using radial grid of 1059 points,  4 beta functions with: 
                l(1) =   0
                l(2) =   0
                l(3) =   1
                l(4) =   1
     Q(r) pseudized with 0 coefficients 


     atomic species   valence    mass     pseudopotential
        B              3.00    10.81100     B ( 1.00)

     24 Sym. Ops., with inversion, found



   Cartesian axes

     site n.     atom                  positions (alat units)
         1           B   tau(   1) = (   0.3333330   0.0000000   0.0000000  )
         2           B   tau(   2) = (   0.6666670   0.0000000   0.0000000  )
         3           B   tau(   3) = (  -0.1666665   0.2886748   0.0000000  )
         4           B   tau(   4) = (   0.1666665   0.2886748   0.0000000  )
         5           B   tau(   5) = (   0.5000005   0.2886748   0.0000000  )
         6           B   tau(   6) = (  -0.3333335   0.5773506   0.0000000  )
         7           B   tau(   7) = (  -0.0000005   0.5773506   0.0000000  )
         8           B   tau(   8) = (   0.3333335   0.5773506   0.0000000  )

     number of k points=    12  Marzari-Vanderbilt smearing, width (Ry)=  0.0350
                       cart. coord. in units 2pi/alat
        k(    1) = (   0.0000000   0.0000000   0.0000000), wk =   0.0246914
        k(    2) = (   0.0000000   0.1283001   0.0000000), wk =   0.1481481
        k(    3) = (   0.0000000   0.2566001   0.0000000), wk =   0.1481481
        k(    4) = (   0.0000000   0.3849002   0.0000000), wk =   0.1481481
        k(    5) = (   0.0000000   0.5132002   0.0000000), wk =   0.1481481
        k(    6) = (   0.1111111   0.1924501   0.0000000), wk =   0.1481481
        k(    7) = (   0.1111111   0.3207501   0.0000000), wk =   0.2962963
        k(    8) = (   0.1111111   0.4490502   0.0000000), wk =   0.2962963
        k(    9) = (   0.1111111   0.5773503   0.0000000), wk =   0.1481481
        k(   10) = (   0.2222222   0.3849002   0.0000000), wk =   0.1481481
        k(   11) = (   0.2222222   0.5132002   0.0000000), wk =   0.2962963
        k(   12) = (   0.3333333   0.5773503   0.0000000), wk =   0.0493827

     Dense  grid:   145297 G-vectors     FFT dimensions: (  60,  60, 120)

     Estimated max dynamical RAM per process >     278.97 MB

     Check: negative core charge=   -0.000001

     Initial potential from superposition of free atoms

     starting charge      23.9977, renormalised to      24.0000

     negative rho (up, down):  5.496E-06 0.000E+00
     Starting wfcs are   32 randomized atomic wfcs

     total cpu time spent up to now is        0.1 secs

     per-process dynamical memory:   161.2 Mb

     Self-consistent Calculation

     iteration #  1     ecut=    80.00 Ry     beta= 0.70
     Davidson diagonalization with overlap
     ethr =  1.00E-02,  avg # of iterations =  2.0

     negative rho (up, down):  1.686E-04 0.000E+00

     total cpu time spent up to now is       19.2 secs

     total energy              =     -49.86561340 Ry
     estimated scf accuracy    <       0.71310232 Ry

     iteration #  2     ecut=    80.00 Ry     beta= 0.70
     Davidson diagonalization with overlap
     ethr =  2.97E-03,  avg # of iterations =  2.0

     negative rho (up, down):  3.549E-04 0.000E+00

     total cpu time spent up to now is       34.0 secs

     total energy              =     -49.98181902 Ry
     estimated scf accuracy    <       0.01860476 Ry

     iteration #  3     ecut=    80.00 Ry     beta= 0.70
     Davidson diagonalization with overlap
     ethr =  7.75E-05,  avg # of iterations =  5.2

     negative rho (up, down):  4.276E-04 0.000E+00

     total cpu time spent up to now is       38.0 secs

     total energy              =     -49.98662600 Ry
     estimated scf accuracy    <       0.00483163 Ry

     iteration #  4     ecut=    80.00 Ry     beta= 0.70
     Davidson diagonalization with overlap
     ethr =  2.01E-05,  avg # of iterations =  3.3

     negative rho (up, down):  5.085E-04 0.000E+00

     total cpu time spent up to now is       52.4 secs

     total energy              =     -49.98768033 Ry
     estimated scf accuracy    <       0.00016809 Ry

     iteration #  5     ecut=    80.00 Ry     beta= 0.70
     Davidson diagonalization with overlap
     ethr =  7.00E-07,  avg # of iterations =  5.8

     negative rho (up, down):  5.151E-04 0.000E+00

     total cpu time spent up to now is       56.7 secs

     total energy              =     -49.98770061 Ry
     estimated scf accuracy    <       0.00001731 Ry

     iteration #  6     ecut=    80.00 Ry     beta= 0.70
     Davidson diagonalization with overlap
     ethr =  7.21E-08,  avg # of iterations =  2.6

     negative rho (up, down):  5.152E-04 0.000E+00

     total cpu time spent up to now is      129.0 secs

     End of self-consistent calculation

          k = 0.0000 0.0000 0.0000 ( 18181 PWs)   bands (ev):

   -16.2126 -12.0838 -12.0052 -12.0052  -9.7382  -9.7381  -7.6232  -7.0752
    -2.0793  -2.0792  -0.6182  -0.1032  -0.1032   0.2089   0.2089   0.5488

          k = 0.0000 0.1283 0.0000 ( 18225 PWs)   bands (ev):

   -16.1570 -12.7553 -12.0559 -11.3769  -9.8099  -9.5976  -7.3830  -6.9896
    -2.6883  -2.5972  -1.5788  -0.5515   0.0566   0.7844   0.8711   1.1650

          k = 0.0000 0.2566 0.0000 ( 18207 PWs)   bands (ev):

   -15.9936 -13.4406 -12.1683 -10.9616  -9.7246  -9.2272  -6.9072  -6.7357
    -3.7323  -3.4416  -2.7422  -1.0572  -0.1632   1.8428   2.0651   2.1704

          k = 0.0000 0.3849 0.0000 ( 18170 PWs)   bands (ev):

   -15.7369 -14.0601 -12.2765 -10.9366  -9.2092  -8.7439  -6.6671  -6.3284
    -4.7004  -3.9757  -3.7836  -1.4066  -0.3879   2.8900   3.2579   3.2600

          k = 0.0000 0.5132 0.0000 ( 18162 PWs)   bands (ev):

   -15.4545 -14.5284 -12.3391 -10.9997  -8.6498  -8.3448  -6.8694  -5.8511
    -5.3452  -4.5838  -4.0382  -1.5832  -0.5160   3.4865   3.8109   3.9375

          k = 0.1111 0.1925 0.0000 ( 18209 PWs)   bands (ev):

   -16.0474 -13.2517 -12.1817 -10.9477  -9.8784  -9.3041  -7.0339  -6.8197
    -3.4735  -3.1912  -2.3858  -1.2141   0.4163   1.2980   1.4020   1.8747

          k = 0.1111 0.3208 0.0000 ( 18165 PWs)   bands (ev):

   -15.8352 -13.8307 -12.3665 -10.6489  -9.6868  -8.8249  -6.7276  -6.4868
    -4.3073  -3.8603  -3.3471  -1.7733   0.4177   2.1064   2.1855   3.0670

          k = 0.1111 0.4491 0.0000 ( 18172 PWs)   bands (ev):

   -15.5480 -14.3594 -12.5035 -10.6489  -9.1177  -8.3513  -6.9192  -6.0217
    -4.9016  -4.2396  -4.1160  -2.0876   0.2789   2.9121   3.2626   3.6172

          k = 0.1111 0.5774 0.0000 ( 18180 PWs)   bands (ev):

   -15.3472 -14.6438 -12.5525 -10.6736  -8.7421  -8.1318  -7.2220  -5.6662
    -5.1641  -4.7437  -4.0760  -2.1893   0.2221   3.3435   3.4202   4.2526

          k = 0.2222 0.3849 0.0000 ( 18142 PWs)   bands (ev):

   -15.5836 -14.2689 -12.6459 -10.1568  -9.6316  -8.3330  -6.9856  -6.0858
    -4.4937  -4.2899  -4.0099  -2.4627   1.2241   2.1755   2.5287   3.5266

          k = 0.2222 0.5132 0.0000 ( 18141 PWs)   bands (ev):

   -15.2865 -14.6682 -12.8110 -10.0132  -9.1879  -8.0031  -7.5812  -5.5948
    -4.6600  -4.6593  -4.2584  -2.7988   1.4184   2.8780   3.0304   3.4633

          k = 0.3333 0.5774 0.0000 ( 18138 PWs)   bands (ev):

   -14.9822 -14.9821 -12.9355  -9.4235  -9.4235  -7.9995  -7.8768  -5.1117
    -5.1117  -4.4063  -4.4062  -3.0748   2.5270   2.5271   3.0419   3.0419

     the Fermi energy is    -0.5622 ev

!    total energy              =     -49.98770545 Ry
     estimated scf accuracy    <       0.00000094 Ry
     smearing contrib. (-TS)   =       0.00015871 Ry
     internal energy E=F+TS    =     -49.98786416 Ry

     The total energy is F=E-TS. E is the sum of the following terms:
     one-electron contribution =    -179.80494660 Ry
     hartree contribution      =      94.52281135 Ry
     xc contribution           =     -23.27386666 Ry
     ewald contribution        =      58.56813775 Ry

     convergence has been achieved in   6 iterations

     Writing all to output data dir ../../outdir/borophene.save/

     init_run     :     16.57s CPU      0.04s WALL (       1 calls)
     electrons    :    137.24s CPU    128.89s WALL (       1 calls)

     Called by init_run:
     wfcinit      :     14.97s CPU     -1.50s WALL (       1 calls)
     potinit      :      0.31s CPU      0.24s WALL (       1 calls)
     hinit0       :      1.07s CPU      1.01s WALL (       1 calls)

     Called by electrons:
     c_bands      :    112.39s CPU    110.09s WALL (       6 calls)
     sum_band     :     22.76s CPU     16.96s WALL (       6 calls)
     v_of_rho     :      1.61s CPU      1.14s WALL (       7 calls)
     newd         :      0.65s CPU      0.84s WALL (       7 calls)
     mix_rho      :      0.18s CPU      0.17s WALL (       6 calls)

     Called by c_bands:
     init_us_2    :      1.17s CPU      1.04s WALL (     156 calls)
     init_us_2:cp :      1.17s CPU      1.04s WALL (     156 calls)
     cegterg      :    110.29s CPU    108.40s WALL (      72 calls)

     Called by *egterg:
     cdiaghg      :      0.18s CPU      0.12s WALL (     324 calls)
     h_psi        :    113.86s CPU     99.41s WALL (     336 calls)
     s_psi        :      2.86s CPU      1.64s WALL (     336 calls)
     g_psi        :      0.27s CPU      0.26s WALL (     252 calls)

     Called by h_psi:
     h_psi:calbec :      3.30s CPU      2.61s WALL (     336 calls)
     vloc_psi     :    107.55s CPU     37.29s WALL (     336 calls)
     add_vuspsi   :      2.65s CPU     59.13s WALL (     336 calls)

     General routines
     calbec       :      4.16s CPU      3.37s WALL (     408 calls)
     fft          :      1.39s CPU      1.17s WALL (      77 calls)
     ffts         :      0.05s CPU      0.04s WALL (       6 calls)
     fftw         :    103.71s CPU     59.53s WALL (    8384 calls)

     Parallel routines

     PWSCF        :   2m33.95s CPU   2m 9.22s WALL


   This run was terminated on:  11:24:28   3Jul2025            

=------------------------------------------------------------------------------=
   JOB DONE.
=------------------------------------------------------------------------------=
