
     Program PWSCF v.7.2 starts on  3Jul2025 at 10:56:57 

     This program is part of the open-source Quantum ESPRESSO suite
     for quantum simulation of materials; please cite
         "P. Giannozzi et al., J. Phys.:Condens. Matter 21 395502 (2009);
         "P. Giannozzi et al., J. Phys.:Condens. Matter 29 465901 (2017);
         "P. Giannozzi et al., J. Chem. Phys. 152 154105 (2020);
          URL http://www.quantum-espresso.org", 
     in publications or presentations arising from this work. More details at
     http://www.quantum-espresso.org/quote

     Parallel version (MPI & OpenMP), running on       2 processor cores
     Number of MPI processes:                 1
     Threads/MPI process:                     2

     MPI processes distributed on     1 nodes
     306 MiB available memory on the printing compute node when the environment starts

     Reading input from ../latticeparam/alpha_50_9.64.in

     Current dimensions of program PWSCF are:
     Max number of different atomic species (ntypx) = 10
     Max number of k-points (npk) =  40000
     Max angular momentum in pseudopotentials (lmaxx) =  4
     file B.pbesol-n-rrkjus_psl.1.0.0.UPF: wavefunction(s)  2S renormalized

     IMPORTANT: XC functional enforced from input :
     Exchange-correlation= PBESOL
                           (   1   4  10   8   0   0   0)
     Any further DFT definition will be discarded
     Please, verify this is what you really want


     Subspace diagonalization in iterative solution of the eigenvalue problem:
     a serial algorithm will be used


     G-vector sticks info
     --------------------
     sticks:   dense  smooth     PW     G-vecs:    dense   smooth      PW
     Sum        1285    1285    361                74211    74211   11087

     Using Slab Decomposition



     bravais-lattice index     =            4
     lattice parameter (alat)  =       9.6400  a.u.
     unit-cell volume          =    1551.6427 (a.u.)^3
     number of atoms/cell      =            8
     number of atomic types    =            1
     number of electrons       =        24.00
     number of Kohn-Sham states=           16
     kinetic-energy cutoff     =      50.0000  Ry
     charge density cutoff     =     200.0000  Ry
     scf convergence threshold =      1.0E-06
     mixing beta               =       0.7000
     number of iterations used =            8  plain     mixing
     Exchange-correlation= PBESOL
                           (   1   4  10   8   0   0   0)

     celldm(1)=   9.640000  celldm(2)=   0.000000  celldm(3)=   2.000000
     celldm(4)=   0.000000  celldm(5)=   0.000000  celldm(6)=   0.000000

     crystal axes: (cart. coord. in units of alat)
               a(1) = (   1.000000   0.000000   0.000000 )  
               a(2) = (  -0.500000   0.866025   0.000000 )  
               a(3) = (   0.000000   0.000000   2.000000 )  

     reciprocal axes: (cart. coord. in units 2 pi/alat)
               b(1) = (  1.000000  0.577350 -0.000000 )  
               b(2) = (  0.000000  1.154701  0.000000 )  
               b(3) = (  0.000000 -0.000000  0.500000 )  


     PseudoPot. # 1 for B  read from file:
     ../../pseudo/B.pbesol-n-rrkjus_psl.1.0.0.UPF
     MD5 check sum: a3839a09b1a4e02f2a06a66adc9253fc
     Pseudo is Ultrasoft + core correction, Zval =  3.0
     Generated using &quot;atomic&quot; code by A. Dal Corso  v.6.3MaX
     Using radial grid of 1059 points,  4 beta functions with: 
                l(1) =   0
                l(2) =   0
                l(3) =   1
                l(4) =   1
     Q(r) pseudized with 0 coefficients 


     atomic species   valence    mass     pseudopotential
        B              3.00    10.81100     B ( 1.00)

     24 Sym. Ops., with inversion, found



   Cartesian axes

     site n.     atom                  positions (alat units)
         1           B   tau(   1) = (   0.3333330   0.0000000   0.0000000  )
         2           B   tau(   2) = (   0.6666670   0.0000000   0.0000000  )
         3           B   tau(   3) = (  -0.1666665   0.2886748   0.0000000  )
         4           B   tau(   4) = (   0.1666665   0.2886748   0.0000000  )
         5           B   tau(   5) = (   0.5000005   0.2886748   0.0000000  )
         6           B   tau(   6) = (  -0.3333335   0.5773506   0.0000000  )
         7           B   tau(   7) = (  -0.0000005   0.5773506   0.0000000  )
         8           B   tau(   8) = (   0.3333335   0.5773506   0.0000000  )

     number of k points=    12  Marzari-Vanderbilt smearing, width (Ry)=  0.0350
                       cart. coord. in units 2pi/alat
        k(    1) = (   0.0000000   0.0000000   0.0000000), wk =   0.0246914
        k(    2) = (   0.0000000   0.1283001   0.0000000), wk =   0.1481481
        k(    3) = (   0.0000000   0.2566001   0.0000000), wk =   0.1481481
        k(    4) = (   0.0000000   0.3849002   0.0000000), wk =   0.1481481
        k(    5) = (   0.0000000   0.5132002   0.0000000), wk =   0.1481481
        k(    6) = (   0.1111111   0.1924501   0.0000000), wk =   0.1481481
        k(    7) = (   0.1111111   0.3207501   0.0000000), wk =   0.2962963
        k(    8) = (   0.1111111   0.4490502   0.0000000), wk =   0.2962963
        k(    9) = (   0.1111111   0.5773503   0.0000000), wk =   0.1481481
        k(   10) = (   0.2222222   0.3849002   0.0000000), wk =   0.1481481
        k(   11) = (   0.2222222   0.5132002   0.0000000), wk =   0.2962963
        k(   12) = (   0.3333333   0.5773503   0.0000000), wk =   0.0493827

     Dense  grid:    74211 G-vectors     FFT dimensions: (  45,  45,  90)

     Estimated max dynamical RAM per process >     139.90 MB

     Check: negative core charge=   -0.000004

     Initial potential from superposition of free atoms

     starting charge      23.9977, renormalised to      24.0000

     negative rho (up, down):  3.496E-04 0.000E+00
     Starting wfcs are   32 randomized atomic wfcs

     total cpu time spent up to now is        4.1 secs

     per-process dynamical memory:    83.1 Mb

     Self-consistent Calculation

     iteration #  1     ecut=    50.00 Ry     beta= 0.70
     Davidson diagonalization with overlap
     ethr =  1.00E-02,  avg # of iterations =  2.0

     negative rho (up, down):  2.638E-03 0.000E+00

     total cpu time spent up to now is       13.2 secs

     total energy              =     -49.87446379 Ry
     estimated scf accuracy    <       0.65318328 Ry

     iteration #  2     ecut=    50.00 Ry     beta= 0.70
     Davidson diagonalization with overlap
     ethr =  2.72E-03,  avg # of iterations =  2.0

     negative rho (up, down):  4.024E-03 0.000E+00

     total cpu time spent up to now is       74.8 secs

     total energy              =     -49.98097973 Ry
     estimated scf accuracy    <       0.01675726 Ry

     iteration #  3     ecut=    50.00 Ry     beta= 0.70
     Davidson diagonalization with overlap
     ethr =  6.98E-05,  avg # of iterations =  3.8

     negative rho (up, down):  4.454E-03 0.000E+00

     total cpu time spent up to now is       84.9 secs

     total energy              =     -49.98519993 Ry
     estimated scf accuracy    <       0.00449296 Ry

     iteration #  4     ecut=    50.00 Ry     beta= 0.70
     Davidson diagonalization with overlap
     ethr =  1.87E-05,  avg # of iterations =  4.6

     negative rho (up, down):  4.864E-03 0.000E+00

     total cpu time spent up to now is       96.4 secs

     total energy              =     -49.98618107 Ry
     estimated scf accuracy    <       0.00016743 Ry

     iteration #  5     ecut=    50.00 Ry     beta= 0.70
     Davidson diagonalization with overlap
     c_bands:  1 eigenvalues not converged
     ethr =  6.98E-07,  avg # of iterations =  7.2

     negative rho (up, down):  4.900E-03 0.000E+00

     total cpu time spent up to now is       95.2 secs

     total energy              =     -49.98620002 Ry
     estimated scf accuracy    <       0.00001403 Ry

     iteration #  6     ecut=    50.00 Ry     beta= 0.70
     Davidson diagonalization with overlap
     ethr =  5.85E-08,  avg # of iterations =  2.9

     negative rho (up, down):  4.901E-03 0.000E+00

     total cpu time spent up to now is      105.0 secs

     End of self-consistent calculation

          k = 0.0000 0.0000 0.0000 (  9271 PWs)   bands (ev):

   -16.1724 -12.0889 -12.0049 -12.0049  -9.7921  -9.7920  -7.6470  -7.0422
    -2.2353  -2.2353  -0.7385  -0.2297  -0.2296  -0.0082  -0.0082   0.4028

          k = 0.0000 0.1283 0.0000 (  9249 PWs)   bands (ev):

   -16.1176 -12.7520 -12.0569 -11.3862  -9.8553  -9.6503  -7.4132  -6.9585
    -2.8373  -2.7460  -1.6733  -0.6683  -0.0765   0.5520   0.6405   1.0048

          k = 0.0000 0.2566 0.0000 (  9265 PWs)   bands (ev):

   -15.9564 -13.4313 -12.1717 -10.9808  -9.7543  -9.2778  -6.9447  -6.7105
    -3.8688  -3.5804  -2.8087  -1.1622  -0.2875   1.5758   1.8023   1.9854

          k = 0.0000 0.3849 0.0000 (  9265 PWs)   bands (ev):

   -15.7030 -14.0447 -12.2817 -10.9588  -9.2333  -8.7918  -6.7056  -6.3127
    -4.8282  -4.1087  -3.8254  -1.5035  -0.5043   2.5776   2.9554   2.9668

          k = 0.0000 0.5132 0.0000 (  9292 PWs)   bands (ev):

   -15.4244 -14.5078 -12.3451 -11.0205  -8.6746  -8.3889  -6.9101  -5.8469
    -5.4711  -4.6064  -4.1645  -1.6759  -0.6282   3.0980   3.4792   3.6208

          k = 0.1111 0.1925 0.0000 (  9255 PWs)   bands (ev):

   -16.0094 -13.2441 -12.1843 -10.9636  -9.9151  -9.3529  -7.0701  -6.7925
    -3.6159  -3.3290  -2.4613  -1.3137   0.2730   1.1402   1.1425   1.6243

          k = 0.1111 0.3208 0.0000 (  9258 PWs)   bands (ev):

   -15.8000 -13.8177 -12.3699 -10.6729  -9.7160  -8.8683  -6.7663  -6.4674
    -4.4414  -3.9899  -3.3998  -1.8589   0.2773   1.8851   1.9275   2.7806

          k = 0.1111 0.4491 0.0000 (  9261 PWs)   bands (ev):

   -15.5166 -14.3410 -12.5069 -10.6739  -9.1488  -8.3893  -6.9619  -6.0132
    -5.0245  -4.2710  -4.2424  -2.1655   0.1442   2.5667   3.0517   3.3227

          k = 0.1111 0.5774 0.0000 (  9268 PWs)   bands (ev):

   -15.3185 -14.6220 -12.5557 -10.6983  -8.7753  -8.1664  -7.2675  -5.6665
    -5.2846  -4.7628  -4.1987  -2.2648   0.0894   2.9779   3.0240   3.9679

          k = 0.2222 0.3849 0.0000 (  9273 PWs)   bands (ev):

   -15.5516 -14.2517 -12.6471 -10.1878  -9.6612  -8.3690  -7.0288  -6.0757
    -4.6204  -4.4108  -4.0478  -2.5303   1.0611   1.9981   2.1872   3.2343

          k = 0.2222 0.5132 0.0000 (  9275 PWs)   bands (ev):

   -15.2583 -14.6468 -12.8105 -10.0454  -9.2232  -8.0339  -7.6257  -5.5963
    -4.7773  -4.6826  -4.3777  -2.8579   1.2533   2.5033   2.8253   3.0651

          k = 0.3333 0.5774 0.0000 (  9291 PWs)   bands (ev):

   -14.9576 -14.9575 -12.9332  -9.4609  -9.4609  -8.0403  -7.9052  -5.1245
    -5.1245  -4.5231  -4.5231  -3.1265   2.3314   2.3314   2.6507   2.6507

     the Fermi energy is    -0.6811 ev

!    total energy              =     -49.98620402 Ry
     estimated scf accuracy    <       0.00000077 Ry
     smearing contrib. (-TS)   =       0.00027925 Ry
     internal energy E=F+TS    =     -49.98648327 Ry

     The total energy is F=E-TS. E is the sum of the following terms:
     one-electron contribution =    -178.63123097 Ry
     hartree contribution      =      93.80635825 Ry
     xc contribution           =     -23.12219499 Ry
     ewald contribution        =      57.96058445 Ry

     convergence has been achieved in   6 iterations

     Writing all to output data dir ../../outdir/borophene.save/

     init_run     :      5.61s CPU      4.04s WALL (       1 calls)
     electrons    :     81.59s CPU    100.84s WALL (       1 calls)

     Called by init_run:
     wfcinit      :      4.87s CPU      3.34s WALL (       1 calls)
     potinit      :      0.11s CPU      0.08s WALL (       1 calls)
     hinit0       :      0.56s CPU      0.52s WALL (       1 calls)

     Called by electrons:
     c_bands      :     65.74s CPU     88.31s WALL (       6 calls)
     sum_band     :     14.93s CPU     11.68s WALL (       6 calls)
     v_of_rho     :      0.68s CPU      0.50s WALL (       7 calls)
     newd         :      0.22s CPU      0.34s WALL (       7 calls)
     mix_rho      :      0.11s CPU      0.10s WALL (       6 calls)

     Called by c_bands:
     init_us_2    :      0.52s CPU      0.49s WALL (     156 calls)
     init_us_2:cp :      0.52s CPU      0.49s WALL (     156 calls)
     cegterg      :     64.82s CPU     87.54s WALL (      72 calls)

     Called by *egterg:
     cdiaghg      :      0.18s CPU      0.12s WALL (     342 calls)
     h_psi        :     64.53s CPU     87.40s WALL (     354 calls)
     s_psi        :      1.18s CPU      0.68s WALL (     354 calls)
     g_psi        :      0.20s CPU      0.18s WALL (     270 calls)

     Called by h_psi:
     h_psi:calbec :      1.85s CPU      1.29s WALL (     354 calls)
     vloc_psi     :     61.39s CPU     85.27s WALL (     354 calls)
     add_vuspsi   :      1.04s CPU      0.65s WALL (     354 calls)

     General routines
     calbec       :      2.34s CPU      1.67s WALL (     426 calls)
     fft          :      0.67s CPU      0.63s WALL (      77 calls)
     ffts         :      0.06s CPU      0.06s WALL (       6 calls)
     fftw         :     67.70s CPU     91.80s WALL (    8400 calls)

     Parallel routines

     PWSCF        :   1m27.29s CPU   1m45.08s WALL


   This run was terminated on:  10:58:42   3Jul2025            

=------------------------------------------------------------------------------=
   JOB DONE.
=------------------------------------------------------------------------------=
