
     Program PWSCF v.7.2 starts on  3Jul2025 at 10:58:42 

     This program is part of the open-source Quantum ESPRESSO suite
     for quantum simulation of materials; please cite
         "P. Giannozzi et al., J. Phys.:Condens. Matter 21 395502 (2009);
         "P. Giannozzi et al., J. Phys.:Condens. Matter 29 465901 (2017);
         "P. Giannozzi et al., J. Chem. Phys. 152 154105 (2020);
          URL http://www.quantum-espresso.org", 
     in publications or presentations arising from this work. More details at
     http://www.quantum-espresso.org/quote

     Parallel version (MPI & OpenMP), running on       2 processor cores
     Number of MPI processes:                 1
     Threads/MPI process:                     2

     MPI processes distributed on     1 nodes
     299 MiB available memory on the printing compute node when the environment starts

     Reading input from ../latticeparam/alpha_60_9.52.in

     Current dimensions of program PWSCF are:
     Max number of different atomic species (ntypx) = 10
     Max number of k-points (npk) =  40000
     Max angular momentum in pseudopotentials (lmaxx) =  4
     file B.pbesol-n-rrkjus_psl.1.0.0.UPF: wavefunction(s)  2S renormalized

     IMPORTANT: XC functional enforced from input :
     Exchange-correlation= PBESOL
                           (   1   4  10   8   0   0   0)
     Any further DFT definition will be discarded
     Please, verify this is what you really want


     Subspace diagonalization in iterative solution of the eigenvalue problem:
     a serial algorithm will be used


     G-vector sticks info
     --------------------
     sticks:   dense  smooth     PW     G-vecs:    dense   smooth      PW
     Sum        1507    1507    421                93939    93939   13873

     Using Slab Decomposition



     bravais-lattice index     =            4
     lattice parameter (alat)  =       9.5200  a.u.
     unit-cell volume          =    1494.4159 (a.u.)^3
     number of atoms/cell      =            8
     number of atomic types    =            1
     number of electrons       =        24.00
     number of Kohn-Sham states=           16
     kinetic-energy cutoff     =      60.0000  Ry
     charge density cutoff     =     240.0000  Ry
     scf convergence threshold =      1.0E-06
     mixing beta               =       0.7000
     number of iterations used =            8  plain     mixing
     Exchange-correlation= PBESOL
                           (   1   4  10   8   0   0   0)

     celldm(1)=   9.520000  celldm(2)=   0.000000  celldm(3)=   2.000000
     celldm(4)=   0.000000  celldm(5)=   0.000000  celldm(6)=   0.000000

     crystal axes: (cart. coord. in units of alat)
               a(1) = (   1.000000   0.000000   0.000000 )  
               a(2) = (  -0.500000   0.866025   0.000000 )  
               a(3) = (   0.000000   0.000000   2.000000 )  

     reciprocal axes: (cart. coord. in units 2 pi/alat)
               b(1) = (  1.000000  0.577350 -0.000000 )  
               b(2) = (  0.000000  1.154701  0.000000 )  
               b(3) = (  0.000000 -0.000000  0.500000 )  


     PseudoPot. # 1 for B  read from file:
     ../../pseudo/B.pbesol-n-rrkjus_psl.1.0.0.UPF
     MD5 check sum: a3839a09b1a4e02f2a06a66adc9253fc
     Pseudo is Ultrasoft + core correction, Zval =  3.0
     Generated using &quot;atomic&quot; code by A. Dal Corso  v.6.3MaX
     Using radial grid of 1059 points,  4 beta functions with: 
                l(1) =   0
                l(2) =   0
                l(3) =   1
                l(4) =   1
     Q(r) pseudized with 0 coefficients 


     atomic species   valence    mass     pseudopotential
        B              3.00    10.81100     B ( 1.00)

     24 Sym. Ops., with inversion, found



   Cartesian axes

     site n.     atom                  positions (alat units)
         1           B   tau(   1) = (   0.3333330   0.0000000   0.0000000  )
         2           B   tau(   2) = (   0.6666670   0.0000000   0.0000000  )
         3           B   tau(   3) = (  -0.1666665   0.2886748   0.0000000  )
         4           B   tau(   4) = (   0.1666665   0.2886748   0.0000000  )
         5           B   tau(   5) = (   0.5000005   0.2886748   0.0000000  )
         6           B   tau(   6) = (  -0.3333335   0.5773506   0.0000000  )
         7           B   tau(   7) = (  -0.0000005   0.5773506   0.0000000  )
         8           B   tau(   8) = (   0.3333335   0.5773506   0.0000000  )

     number of k points=    12  Marzari-Vanderbilt smearing, width (Ry)=  0.0350
                       cart. coord. in units 2pi/alat
        k(    1) = (   0.0000000   0.0000000   0.0000000), wk =   0.0246914
        k(    2) = (   0.0000000   0.1283001   0.0000000), wk =   0.1481481
        k(    3) = (   0.0000000   0.2566001   0.0000000), wk =   0.1481481
        k(    4) = (   0.0000000   0.3849002   0.0000000), wk =   0.1481481
        k(    5) = (   0.0000000   0.5132002   0.0000000), wk =   0.1481481
        k(    6) = (   0.1111111   0.1924501   0.0000000), wk =   0.1481481
        k(    7) = (   0.1111111   0.3207501   0.0000000), wk =   0.2962963
        k(    8) = (   0.1111111   0.4490502   0.0000000), wk =   0.2962963
        k(    9) = (   0.1111111   0.5773503   0.0000000), wk =   0.1481481
        k(   10) = (   0.2222222   0.3849002   0.0000000), wk =   0.1481481
        k(   11) = (   0.2222222   0.5132002   0.0000000), wk =   0.2962963
        k(   12) = (   0.3333333   0.5773503   0.0000000), wk =   0.0493827

     Dense  grid:    93939 G-vectors     FFT dimensions: (  48,  48,  96)

     Estimated max dynamical RAM per process >     176.39 MB

     Check: negative core charge=   -0.000002

     Initial potential from superposition of free atoms

     starting charge      23.9977, renormalised to      24.0000

     negative rho (up, down):  5.950E-08 0.000E+00
     Starting wfcs are   32 randomized atomic wfcs

     total cpu time spent up to now is        5.3 secs

     per-process dynamical memory:   102.4 Mb

     Self-consistent Calculation

     iteration #  1     ecut=    60.00 Ry     beta= 0.70
     Davidson diagonalization with overlap
     ethr =  1.00E-02,  avg # of iterations =  2.0

     negative rho (up, down):  7.878E-05 0.000E+00

     total cpu time spent up to now is        3.9 secs

     total energy              =     -49.86122212 Ry
     estimated scf accuracy    <       0.72676264 Ry

     iteration #  2     ecut=    60.00 Ry     beta= 0.70
     Davidson diagonalization with overlap
     ethr =  3.03E-03,  avg # of iterations =  2.0

     negative rho (up, down):  2.115E-04 0.000E+00

     total cpu time spent up to now is       13.9 secs

     total energy              =     -49.98003618 Ry
     estimated scf accuracy    <       0.01921148 Ry

     iteration #  3     ecut=    60.00 Ry     beta= 0.70
     Davidson diagonalization with overlap
     ethr =  8.00E-05,  avg # of iterations =  5.2

     negative rho (up, down):  2.678E-04 0.000E+00

     total cpu time spent up to now is       29.9 secs

     total energy              =     -49.98500033 Ry
     estimated scf accuracy    <       0.00493614 Ry

     iteration #  4     ecut=    60.00 Ry     beta= 0.70
     Davidson diagonalization with overlap
     ethr =  2.06E-05,  avg # of iterations =  3.8

     negative rho (up, down):  3.328E-04 0.000E+00

     total cpu time spent up to now is       31.8 secs

     total energy              =     -49.98607786 Ry
     estimated scf accuracy    <       0.00017082 Ry

     iteration #  5     ecut=    60.00 Ry     beta= 0.70
     Davidson diagonalization with overlap
     ethr =  7.12E-07,  avg # of iterations =  4.7

     negative rho (up, down):  3.376E-04 0.000E+00

     total cpu time spent up to now is       45.7 secs

     total energy              =     -49.98609802 Ry
     estimated scf accuracy    <       0.00001597 Ry

     iteration #  6     ecut=    60.00 Ry     beta= 0.70
     Davidson diagonalization with overlap
     ethr =  6.66E-08,  avg # of iterations =  2.6

     negative rho (up, down):  3.375E-04 0.000E+00

     total cpu time spent up to now is       58.5 secs

     End of self-consistent calculation

          k = 0.0000 0.0000 0.0000 ( 11777 PWs)   bands (ev):

   -16.2213 -12.0834 -12.0059 -12.0059  -9.7279  -9.7279  -7.6193  -7.0817
    -2.0480  -2.0480  -0.5934  -0.0772  -0.0772   0.2527   0.2527   0.5787

          k = 0.0000 0.1283 0.0000 ( 11733 PWs)   bands (ev):

   -16.1656 -12.7566 -12.0563 -11.3757  -9.8014  -9.5875  -7.3777  -6.9957
    -2.6585  -2.5675  -1.5593  -0.5275   0.0840   0.8313   0.9176   1.1977

          k = 0.0000 0.2566 0.0000 ( 11772 PWs)   bands (ev):

   -16.0018 -13.4431 -12.1683 -10.9584  -9.7193  -9.2176  -6.9005  -6.7406
    -3.7051  -3.4140  -2.7284  -1.0356  -0.1377   1.8967   2.1182   2.2084

          k = 0.0000 0.3849 0.0000 ( 11730 PWs)   bands (ev):

   -15.7443 -14.0638 -12.2761 -10.9328  -9.2050  -8.7348  -6.6600  -6.3314
    -4.6750  -3.9493  -3.7748  -1.3867  -0.3641   2.9522   3.3216   3.3850

          k = 0.0000 0.5132 0.0000 ( 11724 PWs)   bands (ev):

   -15.4611 -14.5332 -12.3384 -10.9962  -8.6454  -8.3366  -6.8618  -5.8517
    -5.3203  -4.5790  -4.0132  -1.5641  -0.4931   3.5631   3.8650   3.9826

          k = 0.1111 0.1925 0.0000 ( 11721 PWs)   bands (ev):

   -16.0557 -13.2537 -12.1817 -10.9452  -9.8717  -9.2948  -7.0274  -6.8250
    -3.4451  -3.1636  -2.3702  -1.1936   0.4458   1.3302   1.4543   1.9254

          k = 0.1111 0.3208 0.0000 ( 11723 PWs)   bands (ev):

   -15.8429 -13.8338 -12.3664 -10.6447  -9.6816  -8.8167  -6.7205  -6.4905
    -4.2807  -3.8344  -3.3361  -1.7557   0.4465   2.1429   2.2459   3.0906

          k = 0.1111 0.4491 0.0000 ( 11733 PWs)   bands (ev):

   -15.5550 -14.3637 -12.5035 -10.6445  -9.1122  -8.3442  -6.9113  -6.0231
    -4.8772  -4.2329  -4.0909  -2.0715   0.3065   2.9815   3.3057   3.6434

          k = 0.1111 0.5774 0.0000 ( 11752 PWs)   bands (ev):

   -15.3536 -14.6488 -12.5524 -10.6693  -8.7361  -8.1254  -7.2136  -5.6659
    -5.1402  -4.7396  -4.0517  -2.1737   0.2493   3.4170   3.5000   4.2851

          k = 0.2222 0.3849 0.0000 ( 11708 PWs)   bands (ev):

   -15.5906 -14.2729 -12.6462 -10.1511  -9.6264  -8.3263  -6.9776  -6.0876
    -4.4686  -4.2659  -4.0019  -2.4489   1.2576   2.2116   2.5975   3.5517

          k = 0.2222 0.5132 0.0000 ( 11726 PWs)   bands (ev):

   -15.2928 -14.6731 -12.8118 -10.0073  -9.1814  -7.9974  -7.5730  -5.5942
    -4.6552  -4.6359  -4.2348  -2.7867   1.4523   2.9536   3.0724   3.5438

          k = 0.3333 0.5774 0.0000 ( 11718 PWs)   bands (ev):

   -14.9877 -14.9877 -12.9366  -9.4166  -9.4166  -7.9920  -7.8717  -5.1088
    -5.1088  -4.3831  -4.3831  -3.0643   2.5672   2.5672   3.1210   3.1210

     the Fermi energy is    -0.5378 ev

!    total energy              =     -49.98610248 Ry
     estimated scf accuracy    <       0.00000084 Ry
     smearing contrib. (-TS)   =       0.00013460 Ry
     internal energy E=F+TS    =     -49.98623708 Ry

     The total energy is F=E-TS. E is the sum of the following terms:
     one-electron contribution =    -180.03572258 Ry
     hartree contribution      =      94.66600066 Ry
     xc contribution           =     -23.30769520 Ry
     ewald contribution        =      58.69118005 Ry

     convergence has been achieved in   6 iterations

     Writing all to output data dir ../../outdir/borophene.save/

     init_run     :      7.08s CPU      5.22s WALL (       1 calls)
     electrons    :    106.98s CPU     53.24s WALL (       1 calls)

     Called by init_run:
     wfcinit      :      6.04s CPU      4.20s WALL (       1 calls)
     potinit      :      0.11s CPU      0.10s WALL (       1 calls)
     hinit0       :      0.82s CPU      0.78s WALL (       1 calls)

     Called by electrons:
     c_bands      :     87.00s CPU     38.17s WALL (       6 calls)
     sum_band     :     18.43s CPU     13.64s WALL (       6 calls)
     v_of_rho     :      0.98s CPU      0.72s WALL (       7 calls)
     newd         :      0.57s CPU      0.70s WALL (       7 calls)
     mix_rho      :      0.10s CPU      0.11s WALL (       6 calls)

     Called by c_bands:
     init_us_2    :      0.90s CPU      0.73s WALL (     156 calls)
     init_us_2:cp :      0.89s CPU      0.73s WALL (     156 calls)
     cegterg      :     85.28s CPU     36.82s WALL (      72 calls)

     Called by *egterg:
     cdiaghg      :      0.20s CPU      0.13s WALL (     315 calls)
     h_psi        :     81.78s CPU     34.68s WALL (     327 calls)
     s_psi        :      2.15s CPU      1.30s WALL (     327 calls)
     g_psi        :      0.40s CPU      0.35s WALL (     243 calls)

     Called by h_psi:
     h_psi:calbec :      3.12s CPU      2.11s WALL (     327 calls)
     vloc_psi     :     76.17s CPU     30.96s WALL (     327 calls)
     add_vuspsi   :      2.00s CPU      1.15s WALL (     327 calls)

     General routines
     calbec       :      4.19s CPU      2.84s WALL (     399 calls)
     fft          :      0.94s CPU      0.89s WALL (      77 calls)
     ffts         :      0.03s CPU      0.02s WALL (       6 calls)
     fftw         :     76.49s CPU     46.40s WALL (    8362 calls)

     Parallel routines

     PWSCF        :   1m54.20s CPU     58.71s WALL


   This run was terminated on:  10:59:40   3Jul2025            

=------------------------------------------------------------------------------=
   JOB DONE.
=------------------------------------------------------------------------------=
