
     Program PWSCF v.7.2 starts on  3Jul2025 at 11:57:28 

     This program is part of the open-source Quantum ESPRESSO suite
     for quantum simulation of materials; please cite
         "P. Giannozzi et al., J. Phys.:Condens. Matter 21 395502 (2009);
         "P. Giannozzi et al., J. Phys.:Condens. Matter 29 465901 (2017);
         "P. Giannozzi et al., J. Chem. Phys. 152 154105 (2020);
          URL http://www.quantum-espresso.org", 
     in publications or presentations arising from this work. More details at
     http://www.quantum-espresso.org/quote

     Parallel version (MPI & OpenMP), running on       2 processor cores
     Number of MPI processes:                 1
     Threads/MPI process:                     2

     MPI processes distributed on     1 nodes
     378 MiB available memory on the printing compute node when the environment starts

     Reading input from ../latticeparam/alpha_8_9.6.in

     Current dimensions of program PWSCF are:
     Max number of different atomic species (ntypx) = 10
     Max number of k-points (npk) =  40000
     Max angular momentum in pseudopotentials (lmaxx) =  4
     file B.pbesol-n-rrkjus_psl.1.0.0.UPF: wavefunction(s)  2S renormalized

     IMPORTANT: XC functional enforced from input :
     Exchange-correlation= PBESOL
                           (   1   4  10   8   0   0   0)
     Any further DFT definition will be discarded
     Please, verify this is what you really want


     Subspace diagonalization in iterative solution of the eigenvalue problem:
     a serial algorithm will be used


     G-vector sticks info
     --------------------
     sticks:   dense  smooth     PW     G-vecs:    dense   smooth      PW
     Sum        1789    1789    499               121627   121627   17567

     Using Slab Decomposition



     bravais-lattice index     =            4
     lattice parameter (alat)  =       9.6000  a.u.
     unit-cell volume          =    1532.4077 (a.u.)^3
     number of atoms/cell      =            8
     number of atomic types    =            1
     number of electrons       =        24.00
     number of Kohn-Sham states=           16
     kinetic-energy cutoff     =      70.0000  Ry
     charge density cutoff     =     280.0000  Ry
     scf convergence threshold =      1.0E-06
     mixing beta               =       0.7000
     number of iterations used =            8  plain     mixing
     Exchange-correlation= PBESOL
                           (   1   4  10   8   0   0   0)

     celldm(1)=   9.600000  celldm(2)=   0.000000  celldm(3)=   2.000000
     celldm(4)=   0.000000  celldm(5)=   0.000000  celldm(6)=   0.000000

     crystal axes: (cart. coord. in units of alat)
               a(1) = (   1.000000   0.000000   0.000000 )  
               a(2) = (  -0.500000   0.866025   0.000000 )  
               a(3) = (   0.000000   0.000000   2.000000 )  

     reciprocal axes: (cart. coord. in units 2 pi/alat)
               b(1) = (  1.000000  0.577350 -0.000000 )  
               b(2) = (  0.000000  1.154701  0.000000 )  
               b(3) = (  0.000000 -0.000000  0.500000 )  


     PseudoPot. # 1 for B  read from file:
     ../../pseudo/B.pbesol-n-rrkjus_psl.1.0.0.UPF
     MD5 check sum: a3839a09b1a4e02f2a06a66adc9253fc
     Pseudo is Ultrasoft + core correction, Zval =  3.0
     Generated using &quot;atomic&quot; code by A. Dal Corso  v.6.3MaX
     Using radial grid of 1059 points,  4 beta functions with: 
                l(1) =   0
                l(2) =   0
                l(3) =   1
                l(4) =   1
     Q(r) pseudized with 0 coefficients 


     atomic species   valence    mass     pseudopotential
        B              3.00    10.81100     B ( 1.00)

     24 Sym. Ops., with inversion, found



   Cartesian axes

     site n.     atom                  positions (alat units)
         1           B   tau(   1) = (   0.3333330   0.0000000   0.0000000  )
         2           B   tau(   2) = (   0.6666670   0.0000000   0.0000000  )
         3           B   tau(   3) = (  -0.1666665   0.2886748   0.0000000  )
         4           B   tau(   4) = (   0.1666665   0.2886748   0.0000000  )
         5           B   tau(   5) = (   0.5000005   0.2886748   0.0000000  )
         6           B   tau(   6) = (  -0.3333335   0.5773506   0.0000000  )
         7           B   tau(   7) = (  -0.0000005   0.5773506   0.0000000  )
         8           B   tau(   8) = (   0.3333335   0.5773506   0.0000000  )

     number of k points=    10  Marzari-Vanderbilt smearing, width (Ry)=  0.0350
                       cart. coord. in units 2pi/alat
        k(    1) = (   0.0000000   0.0000000   0.0000000), wk =   0.0312500
        k(    2) = (   0.0000000   0.1443376   0.0000000), wk =   0.1875000
        k(    3) = (   0.0000000   0.2886751   0.0000000), wk =   0.1875000
        k(    4) = (   0.0000000   0.4330127   0.0000000), wk =   0.1875000
        k(    5) = (   0.0000000  -0.5773503   0.0000000), wk =   0.0937500
        k(    6) = (   0.1250000   0.2165064   0.0000000), wk =   0.1875000
        k(    7) = (   0.1250000   0.3608439   0.0000000), wk =   0.3750000
        k(    8) = (   0.1250000   0.5051815   0.0000000), wk =   0.3750000
        k(    9) = (   0.2500000   0.4330127   0.0000000), wk =   0.1875000
        k(   10) = (   0.2500000   0.5773503   0.0000000), wk =   0.1875000

     Dense  grid:   121627 G-vectors     FFT dimensions: (  54,  54, 108)

     Estimated max dynamical RAM per process >     222.73 MB

     Initial potential from superposition of free atoms

     starting charge      23.9977, renormalised to      24.0000

     negative rho (up, down):  4.477E-05 0.000E+00
     Starting wfcs are   32 randomized atomic wfcs

     total cpu time spent up to now is        5.4 secs

     per-process dynamical memory:   125.6 Mb

     Self-consistent Calculation

     iteration #  1     ecut=    70.00 Ry     beta= 0.70
     Davidson diagonalization with overlap
     ethr =  1.00E-02,  avg # of iterations =  2.0

     negative rho (up, down):  3.552E-04 0.000E+00

     total cpu time spent up to now is        5.6 secs

     total energy              =     -49.87239395 Ry
     estimated scf accuracy    <       0.67609799 Ry

     iteration #  2     ecut=    70.00 Ry     beta= 0.70
     Davidson diagonalization with overlap
     ethr =  2.82E-03,  avg # of iterations =  2.0

     negative rho (up, down):  6.322E-04 0.000E+00

     total cpu time spent up to now is       15.2 secs

     total energy              =     -49.98231171 Ry
     estimated scf accuracy    <       0.01722819 Ry

     iteration #  3     ecut=    70.00 Ry     beta= 0.70
     Davidson diagonalization with overlap
     ethr =  7.18E-05,  avg # of iterations =  2.9

     negative rho (up, down):  7.299E-04 0.000E+00

     total cpu time spent up to now is       25.9 secs

     total energy              =     -49.98670792 Ry
     estimated scf accuracy    <       0.00459534 Ry

     iteration #  4     ecut=    70.00 Ry     beta= 0.70
     Davidson diagonalization with overlap
     ethr =  1.91E-05,  avg # of iterations =  3.8

     negative rho (up, down):  8.313E-04 0.000E+00

     total cpu time spent up to now is       26.6 secs

     total energy              =     -49.98770824 Ry
     estimated scf accuracy    <       0.00016614 Ry

     iteration #  5     ecut=    70.00 Ry     beta= 0.70
     Davidson diagonalization with overlap
     ethr =  6.92E-07,  avg # of iterations =  5.6

     negative rho (up, down):  8.412E-04 0.000E+00

     total cpu time spent up to now is       39.1 secs

     total energy              =     -49.98772804 Ry
     estimated scf accuracy    <       0.00001408 Ry

     iteration #  6     ecut=    70.00 Ry     beta= 0.70
     Davidson diagonalization with overlap
     ethr =  5.87E-08,  avg # of iterations =  2.5

     negative rho (up, down):  8.416E-04 0.000E+00

     total cpu time spent up to now is      102.4 secs

     End of self-consistent calculation

          k = 0.0000 0.0000 0.0000 ( 15117 PWs)   bands (ev):

   -16.1869 -12.0841 -12.0025 -12.0024  -9.7682  -9.7682  -7.6349  -7.0557
    -2.1709  -2.1709  -0.6908  -0.1797  -0.1797   0.0799   0.0800   0.4605

          k = 0.0000 0.1443 0.0000 ( 15150 PWs)   bands (ev):

   -16.1173 -12.8382 -12.0663 -11.3080  -9.8426  -9.5909  -7.3438  -6.9489
    -2.8991  -2.7894  -1.7825  -0.6912  -0.0426   0.7660   0.8701   1.1809

          k = 0.0000 0.2887 0.0000 ( 15172 PWs)   bands (ev):

   -15.9136 -13.5948 -12.1979 -10.9382  -9.6413  -9.1388  -6.8260  -6.6336
    -4.0689  -3.7014  -3.0536  -1.2225  -0.2984   1.9504   2.2111   2.3333

          k = 0.0000 0.4330 0.0000 ( 15136 PWs)   bands (ev):

   -15.6045 -14.2498 -12.3077 -10.9737  -8.9877  -8.5938  -6.7308  -6.1399
    -5.0702  -4.1447  -4.1140  -1.5509  -0.5186   3.0223   3.3882   3.4641

          k = 0.0000-0.5774 0.0000 ( 15242 PWs)   bands (ev):

   -15.3739 -14.5981 -12.3487 -11.0199  -8.5578  -8.3029  -6.9601  -5.7353
    -5.5146  -4.7514  -4.0991  -1.6612  -0.5997   3.2074   3.6937   4.1146

          k = 0.1250 0.2165 0.0000 ( 15187 PWs)   bands (ev):

   -15.9802 -13.3850 -12.2289 -10.8442  -9.8985  -9.2203  -6.9539  -6.7375
    -3.7785  -3.4440  -2.6577  -1.4436   0.4025   1.3068   1.4238   2.0434

          k = 0.1250 0.3608 0.0000 ( 15185 PWs)   bands (ev):

   -15.7184 -14.0103 -12.4461 -10.5822  -9.5812  -8.6568  -6.7625  -6.3270
    -4.5874  -4.1007  -3.6840  -2.0258   0.4143   2.2179   2.2456   3.1504

          k = 0.1250 0.5052 0.0000 ( 15141 PWs)   bands (ev):

   -15.3952 -14.5329 -12.5747 -10.6042  -8.9388  -8.1980  -7.1782  -5.7934
    -5.0931  -4.5681  -4.1852  -2.2956   0.2986   2.8836   3.3702   3.5461

          k = 0.2500 0.4330 0.0000 ( 15161 PWs)   bands (ev):

   -15.4145 -14.4645 -12.7560  -9.9914  -9.5182  -8.1499  -7.3185  -5.8415
    -4.5205  -4.4886  -4.3545  -2.7387   1.4020   2.2962   2.4695   3.5809

          k = 0.2500 0.5774 0.0000 ( 15157 PWs)   bands (ev):

   -15.1434 -14.7885 -12.8749  -9.8551  -9.1726  -7.9378  -7.8482  -5.3887
    -4.8787  -4.6738  -4.3374  -2.9768   1.6249   2.7269   3.0047   3.0074

     the Fermi energy is    -0.6310 ev

!    total energy              =     -49.98773190 Ry
     estimated scf accuracy    <       0.00000041 Ry
     smearing contrib. (-TS)   =      -0.00029647 Ry
     internal energy E=F+TS    =     -49.98743543 Ry

     The total energy is F=E-TS. E is the sum of the following terms:
     one-electron contribution =    -179.10538870 Ry
     hartree contribution      =      94.09550412 Ry
     xc contribution           =     -23.17963773 Ry
     ewald contribution        =      58.20208689 Ry

     convergence has been achieved in   6 iterations

     Writing all to output data dir ../../outdir/borophene.save/

     init_run     :      7.45s CPU      5.37s WALL (       1 calls)
     electrons    :     86.54s CPU     97.00s WALL (       1 calls)

     Called by init_run:
     wfcinit      :      6.44s CPU      4.37s WALL (       1 calls)
     potinit      :      0.18s CPU      0.18s WALL (       1 calls)
     hinit0       :      0.70s CPU      0.63s WALL (       1 calls)

     Called by electrons:
     c_bands      :     69.69s CPU    104.20s WALL (       6 calls)
     sum_band     :     15.35s CPU     -8.59s WALL (       6 calls)
     v_of_rho     :      1.12s CPU      0.87s WALL (       7 calls)
     newd         :      0.42s CPU      0.58s WALL (       7 calls)
     mix_rho      :      0.13s CPU      0.13s WALL (       6 calls)

     Called by c_bands:
     init_us_2    :      0.77s CPU      0.69s WALL (     130 calls)
     init_us_2:cp :      0.77s CPU      0.69s WALL (     130 calls)
     cegterg      :     68.51s CPU    103.17s WALL (      60 calls)

     Called by *egterg:
     cdiaghg      :      0.14s CPU      0.08s WALL (     248 calls)
     h_psi        :     68.50s CPU    103.36s WALL (     258 calls)
     s_psi        :      1.53s CPU      0.86s WALL (     258 calls)
     g_psi        :      0.17s CPU      0.17s WALL (     188 calls)

     Called by h_psi:
     h_psi:calbec :      1.77s CPU      1.53s WALL (     258 calls)
     vloc_psi     :     65.08s CPU    100.78s WALL (     258 calls)
     add_vuspsi   :      1.45s CPU      0.81s WALL (     258 calls)

     General routines
     calbec       :      2.43s CPU      2.06s WALL (     318 calls)
     fft          :      0.87s CPU      0.76s WALL (      77 calls)
     ffts         :      0.04s CPU      0.04s WALL (       6 calls)
     fftw         :     66.45s CPU    102.08s WALL (    6910 calls)

     Parallel routines

     PWSCF        :   1m34.09s CPU   1m42.55s WALL


   This run was terminated on:  11:59:11   3Jul2025            

=------------------------------------------------------------------------------=
   JOB DONE.
=------------------------------------------------------------------------------=
