
     Program PWSCF v.7.2 starts on  3Jul2025 at 11: 7: 3 

     This program is part of the open-source Quantum ESPRESSO suite
     for quantum simulation of materials; please cite
         "P. Giannozzi et al., J. Phys.:Condens. Matter 21 395502 (2009);
         "P. Giannozzi et al., J. Phys.:Condens. Matter 29 465901 (2017);
         "P. Giannozzi et al., J. Chem. Phys. 152 154105 (2020);
          URL http://www.quantum-espresso.org", 
     in publications or presentations arising from this work. More details at
     http://www.quantum-espresso.org/quote

     Parallel version (MPI & OpenMP), running on       2 processor cores
     Number of MPI processes:                 1
     Threads/MPI process:                     2

     MPI processes distributed on     1 nodes
     336 MiB available memory on the printing compute node when the environment starts

     Reading input from ../latticeparam/alpha_60_9.64.in

     Current dimensions of program PWSCF are:
     Max number of different atomic species (ntypx) = 10
     Max number of k-points (npk) =  40000
     Max angular momentum in pseudopotentials (lmaxx) =  4
     file B.pbesol-n-rrkjus_psl.1.0.0.UPF: wavefunction(s)  2S renormalized

     IMPORTANT: XC functional enforced from input :
     Exchange-correlation= PBESOL
                           (   1   4  10   8   0   0   0)
     Any further DFT definition will be discarded
     Please, verify this is what you really want


     Subspace diagonalization in iterative solution of the eigenvalue problem:
     a serial algorithm will be used


     G-vector sticks info
     --------------------
     sticks:   dense  smooth     PW     G-vecs:    dense   smooth      PW
     Sum        1531    1531    433                97181    97181   14367

     Using Slab Decomposition



     bravais-lattice index     =            4
     lattice parameter (alat)  =       9.6400  a.u.
     unit-cell volume          =    1551.6427 (a.u.)^3
     number of atoms/cell      =            8
     number of atomic types    =            1
     number of electrons       =        24.00
     number of Kohn-Sham states=           16
     kinetic-energy cutoff     =      60.0000  Ry
     charge density cutoff     =     240.0000  Ry
     scf convergence threshold =      1.0E-06
     mixing beta               =       0.7000
     number of iterations used =            8  plain     mixing
     Exchange-correlation= PBESOL
                           (   1   4  10   8   0   0   0)

     celldm(1)=   9.640000  celldm(2)=   0.000000  celldm(3)=   2.000000
     celldm(4)=   0.000000  celldm(5)=   0.000000  celldm(6)=   0.000000

     crystal axes: (cart. coord. in units of alat)
               a(1) = (   1.000000   0.000000   0.000000 )  
               a(2) = (  -0.500000   0.866025   0.000000 )  
               a(3) = (   0.000000   0.000000   2.000000 )  

     reciprocal axes: (cart. coord. in units 2 pi/alat)
               b(1) = (  1.000000  0.577350 -0.000000 )  
               b(2) = (  0.000000  1.154701  0.000000 )  
               b(3) = (  0.000000 -0.000000  0.500000 )  


     PseudoPot. # 1 for B  read from file:
     ../../pseudo/B.pbesol-n-rrkjus_psl.1.0.0.UPF
     MD5 check sum: a3839a09b1a4e02f2a06a66adc9253fc
     Pseudo is Ultrasoft + core correction, Zval =  3.0
     Generated using &quot;atomic&quot; code by A. Dal Corso  v.6.3MaX
     Using radial grid of 1059 points,  4 beta functions with: 
                l(1) =   0
                l(2) =   0
                l(3) =   1
                l(4) =   1
     Q(r) pseudized with 0 coefficients 


     atomic species   valence    mass     pseudopotential
        B              3.00    10.81100     B ( 1.00)

     24 Sym. Ops., with inversion, found



   Cartesian axes

     site n.     atom                  positions (alat units)
         1           B   tau(   1) = (   0.3333330   0.0000000   0.0000000  )
         2           B   tau(   2) = (   0.6666670   0.0000000   0.0000000  )
         3           B   tau(   3) = (  -0.1666665   0.2886748   0.0000000  )
         4           B   tau(   4) = (   0.1666665   0.2886748   0.0000000  )
         5           B   tau(   5) = (   0.5000005   0.2886748   0.0000000  )
         6           B   tau(   6) = (  -0.3333335   0.5773506   0.0000000  )
         7           B   tau(   7) = (  -0.0000005   0.5773506   0.0000000  )
         8           B   tau(   8) = (   0.3333335   0.5773506   0.0000000  )

     number of k points=    12  Marzari-Vanderbilt smearing, width (Ry)=  0.0350
                       cart. coord. in units 2pi/alat
        k(    1) = (   0.0000000   0.0000000   0.0000000), wk =   0.0246914
        k(    2) = (   0.0000000   0.1283001   0.0000000), wk =   0.1481481
        k(    3) = (   0.0000000   0.2566001   0.0000000), wk =   0.1481481
        k(    4) = (   0.0000000   0.3849002   0.0000000), wk =   0.1481481
        k(    5) = (   0.0000000   0.5132002   0.0000000), wk =   0.1481481
        k(    6) = (   0.1111111   0.1924501   0.0000000), wk =   0.1481481
        k(    7) = (   0.1111111   0.3207501   0.0000000), wk =   0.2962963
        k(    8) = (   0.1111111   0.4490502   0.0000000), wk =   0.2962963
        k(    9) = (   0.1111111   0.5773503   0.0000000), wk =   0.1481481
        k(   10) = (   0.2222222   0.3849002   0.0000000), wk =   0.1481481
        k(   11) = (   0.2222222   0.5132002   0.0000000), wk =   0.2962963
        k(   12) = (   0.3333333   0.5773503   0.0000000), wk =   0.0493827

     Dense  grid:    97181 G-vectors     FFT dimensions: (  48,  48,  96)

     Estimated max dynamical RAM per process >     182.12 MB

     Check: negative core charge=   -0.000002

     Initial potential from superposition of free atoms

     starting charge      23.9977, renormalised to      24.0000

     negative rho (up, down):  1.338E-07 0.000E+00
     Starting wfcs are   32 randomized atomic wfcs

     total cpu time spent up to now is       -5.8 secs

     per-process dynamical memory:   105.5 Mb

     Self-consistent Calculation

     iteration #  1     ecut=    60.00 Ry     beta= 0.70
     Davidson diagonalization with overlap
     ethr =  1.00E-02,  avg # of iterations =  2.0

     negative rho (up, down):  8.120E-05 0.000E+00

     total cpu time spent up to now is        6.2 secs

     total energy              =     -49.87506796 Ry
     estimated scf accuracy    <       0.65255646 Ry

     iteration #  2     ecut=    60.00 Ry     beta= 0.70
     Davidson diagonalization with overlap
     ethr =  2.72E-03,  avg # of iterations =  2.0

     negative rho (up, down):  2.138E-04 0.000E+00

     total cpu time spent up to now is       17.9 secs

     total energy              =     -49.98126762 Ry
     estimated scf accuracy    <       0.01662628 Ry

     iteration #  3     ecut=    60.00 Ry     beta= 0.70
     Davidson diagonalization with overlap
     ethr =  6.93E-05,  avg # of iterations =  3.5

     negative rho (up, down):  2.687E-04 0.000E+00

     total cpu time spent up to now is       31.2 secs

     total energy              =     -49.98547342 Ry
     estimated scf accuracy    <       0.00446805 Ry

     iteration #  4     ecut=    60.00 Ry     beta= 0.70
     Davidson diagonalization with overlap
     ethr =  1.86E-05,  avg # of iterations =  3.0

     negative rho (up, down):  3.302E-04 0.000E+00

     total cpu time spent up to now is       43.5 secs

     total energy              =     -49.98644937 Ry
     estimated scf accuracy    <       0.00016336 Ry

     iteration #  5     ecut=    60.00 Ry     beta= 0.70
     Davidson diagonalization with overlap
     ethr =  6.81E-07,  avg # of iterations =  6.8

     negative rho (up, down):  3.349E-04 0.000E+00

     total cpu time spent up to now is       46.7 secs

     total energy              =     -49.98646894 Ry
     estimated scf accuracy    <       0.00001575 Ry

     iteration #  6     ecut=    60.00 Ry     beta= 0.70
     Davidson diagonalization with overlap
     ethr =  6.56E-08,  avg # of iterations =  2.5

     negative rho (up, down):  3.351E-04 0.000E+00

     total cpu time spent up to now is       58.9 secs

     End of self-consistent calculation

          k = 0.0000 0.0000 0.0000 ( 12101 PWs)   bands (ev):

   -16.1686 -12.0836 -11.9997 -11.9996  -9.7872  -9.7872  -7.6421  -7.0417
    -2.2302  -2.2301  -0.7371  -0.2284  -0.2284  -0.0041  -0.0041   0.4039

          k = 0.0000 0.1283 0.0000 ( 12189 PWs)   bands (ev):

   -16.1138 -12.7470 -12.0517 -11.3808  -9.8504  -9.6454  -7.4082  -6.9580
    -2.8322  -2.7409  -1.6722  -0.6672  -0.0752   0.5561   0.6446   1.0060

          k = 0.0000 0.2566 0.0000 ( 12147 PWs)   bands (ev):

   -15.9525 -13.4265 -12.1667 -10.9757  -9.7491  -9.2726  -6.9395  -6.7100
    -3.8638  -3.5754  -2.8077  -1.1612  -0.2859   1.5798   1.8062   1.9867

          k = 0.0000 0.3849 0.0000 ( 12168 PWs)   bands (ev):

   -15.6990 -14.0401 -12.2768 -10.9539  -9.2276  -8.7863  -6.7002  -6.3121
    -4.8234  -4.1038  -3.8245  -1.5025  -0.5026   2.5830   2.9590   3.1269

          k = 0.0000 0.5132 0.0000 ( 12172 PWs)   bands (ev):

   -15.4202 -14.5033 -12.3402 -11.0158  -8.6686  -8.3831  -6.9047  -5.8462
    -5.4664  -4.6055  -4.1596  -1.6749  -0.6264   3.1036   3.4958   3.8259

          k = 0.1111 0.1925 0.0000 ( 12152 PWs)   bands (ev):

   -16.0056 -13.2392 -12.1793 -10.9583  -9.9102  -9.3477  -7.0650  -6.7920
    -3.6109  -3.3239  -2.4602  -1.3125   0.2742   1.1421   1.1464   1.6283

          k = 0.1111 0.3208 0.0000 ( 12152 PWs)   bands (ev):

   -15.7960 -13.8130 -12.3651 -10.6678  -9.7108  -8.8628  -6.7609  -6.4668
    -4.4365  -3.9849  -3.3988  -1.8577   0.2788   1.8890   1.9296   2.9279

          k = 0.1111 0.4491 0.0000 ( 12192 PWs)   bands (ev):

   -15.5125 -14.3365 -12.5022 -10.6689  -9.1432  -8.3834  -6.9566  -6.0126
    -5.0196  -4.2701  -4.2375  -2.1644   0.1458   2.5707   3.0541   3.4911

          k = 0.1111 0.5774 0.0000 ( 12188 PWs)   bands (ev):

   -15.3143 -14.6176 -12.5510 -10.6934  -8.7694  -8.1604  -7.2623  -5.6659
    -5.2798  -4.7619  -4.1937  -2.2636   0.0911   2.9821   3.0278   4.0123

          k = 0.2222 0.3849 0.0000 ( 12202 PWs)   bands (ev):

   -15.5476 -14.2471 -12.6425 -10.1824  -9.6560  -8.3631  -7.0234  -6.0751
    -4.6155  -4.4058  -4.0469  -2.5291   1.0624   2.0005   2.1909   3.4366

          k = 0.2222 0.5132 0.0000 ( 12195 PWs)   bands (ev):

   -15.2541 -14.6423 -12.8060 -10.0402  -9.2177  -8.0277  -7.6206  -5.5957
    -4.7723  -4.6818  -4.3727  -2.8567   1.2548   2.5068   2.8275   3.0685

          k = 0.3333 0.5774 0.0000 ( 12204 PWs)   bands (ev):

   -14.9532 -14.9532 -12.9288  -9.4554  -9.4554  -8.0355  -7.8990  -5.1238
    -5.1238  -4.5180  -4.5180  -3.1253   2.3328   2.3328   2.6540   2.6540

     the Fermi energy is    -0.6796 ev

!    total energy              =     -49.98647327 Ry
     estimated scf accuracy    <       0.00000085 Ry
     smearing contrib. (-TS)   =       0.00027869 Ry
     internal energy E=F+TS    =     -49.98675196 Ry

     The total energy is F=E-TS. E is the sum of the following terms:
     one-electron contribution =    -178.64300893 Ry
     hartree contribution      =      93.81472901 Ry
     xc contribution           =     -23.11905649 Ry
     ewald contribution        =      57.96058444 Ry

     convergence has been achieved in   6 iterations

     Writing all to output data dir ../../outdir/borophene.save/

     init_run     :      9.99s CPU     -5.88s WALL (       1 calls)
     electrons    :    112.72s CPU     64.63s WALL (       1 calls)

     Called by init_run:
     wfcinit      :      8.63s CPU     -7.05s WALL (       1 calls)
     potinit      :      0.21s CPU      0.13s WALL (       1 calls)
     hinit0       :      0.97s CPU      0.85s WALL (       1 calls)

     Called by electrons:
     c_bands      :     91.71s CPU     49.35s WALL (       6 calls)
     sum_band     :     19.36s CPU     13.99s WALL (       6 calls)
     v_of_rho     :      1.19s CPU      0.75s WALL (       7 calls)
     newd         :      0.53s CPU      0.57s WALL (       7 calls)
     mix_rho      :      0.15s CPU      0.13s WALL (       6 calls)

     Called by c_bands:
     init_us_2    :      0.99s CPU      0.78s WALL (     156 calls)
     init_us_2:cp :      0.98s CPU      0.78s WALL (     156 calls)
     cegterg      :     89.68s CPU     47.75s WALL (      72 calls)

     Called by *egterg:
     cdiaghg      :      0.19s CPU      0.14s WALL (     310 calls)
     h_psi        :     86.50s CPU     32.91s WALL (     322 calls)
     s_psi        :      2.80s CPU      1.71s WALL (     322 calls)
     g_psi        :      0.43s CPU      0.38s WALL (     238 calls)

     Called by h_psi:
     h_psi:calbec :      4.10s CPU     -9.81s WALL (     322 calls)
     vloc_psi     :     79.16s CPU     40.76s WALL (     322 calls)
     add_vuspsi   :      2.63s CPU      1.43s WALL (     322 calls)

     General routines
     calbec       :      5.34s CPU     -9.01s WALL (     394 calls)
     fft          :      1.19s CPU      0.92s WALL (      77 calls)
     ffts         :      0.04s CPU      0.04s WALL (       6 calls)
     fftw         :     81.44s CPU     44.43s WALL (    8326 calls)

     Parallel routines

     PWSCF        :   2m 2.91s CPU     59.06s WALL


   This run was terminated on:  11: 8: 2   3Jul2025            

=------------------------------------------------------------------------------=
   JOB DONE.
=------------------------------------------------------------------------------=
