
     Program PWSCF v.7.2 starts on  3Jul2025 at 12:18: 4 

     This program is part of the open-source Quantum ESPRESSO suite
     for quantum simulation of materials; please cite
         "P. Giannozzi et al., J. Phys.:Condens. Matter 21 395502 (2009);
         "P. Giannozzi et al., J. Phys.:Condens. Matter 29 465901 (2017);
         "P. Giannozzi et al., J. Chem. Phys. 152 154105 (2020);
          URL http://www.quantum-espresso.org", 
     in publications or presentations arising from this work. More details at
     http://www.quantum-espresso.org/quote

     Parallel version (MPI & OpenMP), running on       2 processor cores
     Number of MPI processes:                 1
     Threads/MPI process:                     2

     MPI processes distributed on     1 nodes
     378 MiB available memory on the printing compute node when the environment starts

     Reading input from ../latticeparam/alpha_10_9.54.in

     Current dimensions of program PWSCF are:
     Max number of different atomic species (ntypx) = 10
     Max number of k-points (npk) =  40000
     Max angular momentum in pseudopotentials (lmaxx) =  4
     file B.pbesol-n-rrkjus_psl.1.0.0.UPF: wavefunction(s)  2S renormalized

     IMPORTANT: XC functional enforced from input :
     Exchange-correlation= PBESOL
                           (   1   4  10   8   0   0   0)
     Any further DFT definition will be discarded
     Please, verify this is what you really want


     Subspace diagonalization in iterative solution of the eigenvalue problem:
     a serial algorithm will be used


     G-vector sticks info
     --------------------
     sticks:   dense  smooth     PW     G-vecs:    dense   smooth      PW
     Sum        1765    1765    475               118997   118997   17003

     Using Slab Decomposition



     bravais-lattice index     =            4
     lattice parameter (alat)  =       9.5400  a.u.
     unit-cell volume          =    1503.8543 (a.u.)^3
     number of atoms/cell      =            8
     number of atomic types    =            1
     number of electrons       =        24.00
     number of Kohn-Sham states=           16
     kinetic-energy cutoff     =      70.0000  Ry
     charge density cutoff     =     280.0000  Ry
     scf convergence threshold =      1.0E-06
     mixing beta               =       0.7000
     number of iterations used =            8  plain     mixing
     Exchange-correlation= PBESOL
                           (   1   4  10   8   0   0   0)

     celldm(1)=   9.540000  celldm(2)=   0.000000  celldm(3)=   2.000000
     celldm(4)=   0.000000  celldm(5)=   0.000000  celldm(6)=   0.000000

     crystal axes: (cart. coord. in units of alat)
               a(1) = (   1.000000   0.000000   0.000000 )  
               a(2) = (  -0.500000   0.866025   0.000000 )  
               a(3) = (   0.000000   0.000000   2.000000 )  

     reciprocal axes: (cart. coord. in units 2 pi/alat)
               b(1) = (  1.000000  0.577350 -0.000000 )  
               b(2) = (  0.000000  1.154701  0.000000 )  
               b(3) = (  0.000000 -0.000000  0.500000 )  


     PseudoPot. # 1 for B  read from file:
     ../../pseudo/B.pbesol-n-rrkjus_psl.1.0.0.UPF
     MD5 check sum: a3839a09b1a4e02f2a06a66adc9253fc
     Pseudo is Ultrasoft + core correction, Zval =  3.0
     Generated using &quot;atomic&quot; code by A. Dal Corso  v.6.3MaX
     Using radial grid of 1059 points,  4 beta functions with: 
                l(1) =   0
                l(2) =   0
                l(3) =   1
                l(4) =   1
     Q(r) pseudized with 0 coefficients 


     atomic species   valence    mass     pseudopotential
        B              3.00    10.81100     B ( 1.00)

     24 Sym. Ops., with inversion, found



   Cartesian axes

     site n.     atom                  positions (alat units)
         1           B   tau(   1) = (   0.3333330   0.0000000   0.0000000  )
         2           B   tau(   2) = (   0.6666670   0.0000000   0.0000000  )
         3           B   tau(   3) = (  -0.1666665   0.2886748   0.0000000  )
         4           B   tau(   4) = (   0.1666665   0.2886748   0.0000000  )
         5           B   tau(   5) = (   0.5000005   0.2886748   0.0000000  )
         6           B   tau(   6) = (  -0.3333335   0.5773506   0.0000000  )
         7           B   tau(   7) = (  -0.0000005   0.5773506   0.0000000  )
         8           B   tau(   8) = (   0.3333335   0.5773506   0.0000000  )

     number of k points=    14  Marzari-Vanderbilt smearing, width (Ry)=  0.0350
                       cart. coord. in units 2pi/alat
        k(    1) = (   0.0000000   0.0000000   0.0000000), wk =   0.0200000
        k(    2) = (   0.0000000   0.1154701   0.0000000), wk =   0.1200000
        k(    3) = (   0.0000000   0.2309401   0.0000000), wk =   0.1200000
        k(    4) = (   0.0000000   0.3464102   0.0000000), wk =   0.1200000
        k(    5) = (   0.0000000   0.4618802   0.0000000), wk =   0.1200000
        k(    6) = (   0.0000000  -0.5773503   0.0000000), wk =   0.0600000
        k(    7) = (   0.1000000   0.1732051   0.0000000), wk =   0.1200000
        k(    8) = (   0.1000000   0.2886751   0.0000000), wk =   0.2400000
        k(    9) = (   0.1000000   0.4041452   0.0000000), wk =   0.2400000
        k(   10) = (   0.1000000   0.5196152   0.0000000), wk =   0.2400000
        k(   11) = (   0.2000000   0.3464102   0.0000000), wk =   0.1200000
        k(   12) = (   0.2000000   0.4618802   0.0000000), wk =   0.2400000
        k(   13) = (   0.2000000   0.5773503   0.0000000), wk =   0.1200000
        k(   14) = (   0.3000000   0.5196152   0.0000000), wk =   0.1200000

     Dense  grid:   118997 G-vectors     FFT dimensions: (  54,  54, 108)

     Estimated max dynamical RAM per process >     233.08 MB

     Initial potential from superposition of free atoms

     starting charge      23.9977, renormalised to      24.0000

     negative rho (up, down):  3.878E-05 0.000E+00
     Starting wfcs are   32 randomized atomic wfcs

     total cpu time spent up to now is       12.4 secs

     per-process dynamical memory:   138.5 Mb

     Self-consistent Calculation

     iteration #  1     ecut=    70.00 Ry     beta= 0.70
     Davidson diagonalization with overlap
     ethr =  1.00E-02,  avg # of iterations =  2.0

     negative rho (up, down):  3.645E-04 0.000E+00

     total cpu time spent up to now is       22.2 secs

     total energy              =     -49.86502576 Ry
     estimated scf accuracy    <       0.71383316 Ry

     iteration #  2     ecut=    70.00 Ry     beta= 0.70
     Davidson diagonalization with overlap
     ethr =  2.97E-03,  avg # of iterations =  2.0

     negative rho (up, down):  6.511E-04 0.000E+00

     total cpu time spent up to now is       42.2 secs

     total energy              =     -49.98154766 Ry
     estimated scf accuracy    <       0.01903039 Ry

     iteration #  3     ecut=    70.00 Ry     beta= 0.70
     Davidson diagonalization with overlap
     ethr =  7.93E-05,  avg # of iterations =  3.1

     negative rho (up, down):  7.539E-04 0.000E+00

     total cpu time spent up to now is       53.1 secs

     total energy              =     -49.98649421 Ry
     estimated scf accuracy    <       0.00489876 Ry

     iteration #  4     ecut=    70.00 Ry     beta= 0.70
     Davidson diagonalization with overlap
     ethr =  2.04E-05,  avg # of iterations =  4.4

     negative rho (up, down):  8.629E-04 0.000E+00

     total cpu time spent up to now is      132.8 secs

     total energy              =     -49.98755136 Ry
     estimated scf accuracy    <       0.00016692 Ry

     iteration #  5     ecut=    70.00 Ry     beta= 0.70
     Davidson diagonalization with overlap
     c_bands:  1 eigenvalues not converged
     ethr =  6.95E-07,  avg # of iterations =  6.2

     negative rho (up, down):  8.719E-04 0.000E+00

     total cpu time spent up to now is      151.2 secs

     total energy              =     -49.98757136 Ry
     estimated scf accuracy    <       0.00001639 Ry

     iteration #  6     ecut=    70.00 Ry     beta= 0.70
     Davidson diagonalization with overlap
     ethr =  6.83E-08,  avg # of iterations =  2.8

     negative rho (up, down):  8.722E-04 0.000E+00

     total cpu time spent up to now is      163.3 secs

     End of self-consistent calculation

          k = 0.0000 0.0000 0.0000 ( 14889 PWs)   bands (ev):

   -16.2125 -12.0833 -12.0048 -12.0048  -9.7383  -9.7382  -7.6237  -7.0752
    -2.0792  -2.0792  -0.6177  -0.1034  -0.1034   0.2090   0.2091   0.5483

          k = 0.0000 0.1155 0.0000 ( 14896 PWs)   bands (ev):

   -16.1675 -12.6844 -12.0465 -11.4370  -9.8011  -9.6235  -7.4251  -7.0058
    -2.5923  -2.5154  -1.4598  -0.4950   0.0683   0.6914   0.7654   1.0759

          k = 0.0000 0.2309 0.0000 ( 14904 PWs)   bands (ev):

   -16.0344 -13.3070 -12.1440 -11.0087  -9.7787  -9.3146  -6.9998  -6.7995
    -3.5215  -3.2830  -2.5165  -0.9677  -0.1134   1.6235   1.8177   1.9541

          k = 0.0000 0.3464 0.0000 ( 14888 PWs)   bands (ev):

   -15.8217 -13.8840 -12.2473 -10.9209  -9.3914  -8.8915  -6.6870  -6.4646
    -4.4316  -3.8716  -3.4888  -1.3199  -0.3283   2.5927   2.9163   2.9745

          k = 0.0000 0.4619 0.0000 ( 14854 PWs)   bands (ev):

   -15.5591 -14.3710 -12.3208 -10.9786  -8.8437  -8.4746  -6.7626  -6.0348
    -5.1464  -4.3092  -4.0475  -1.5339  -0.4795   3.3699   3.6031   3.8687

          k = 0.0000-0.5774 0.0000 ( 14898 PWs)   bands (ev):

   -15.3930 -14.6129 -12.3470 -11.0100  -8.5457  -8.2797  -6.9379  -5.7356
    -5.4410  -4.7399  -4.0265  -1.6056  -0.5329   3.4434   3.8821   4.2246

          k = 0.1000 0.1732 0.0000 ( 14901 PWs)   bands (ev):

   -16.0783 -13.1362 -12.1470 -11.0408  -9.8708  -9.3845  -7.1187  -6.8679
    -3.2893  -3.0483  -2.1974  -1.0759   0.3624   1.2134   1.2511   1.6263

          k = 0.1000 0.2887 0.0000 ( 14869 PWs)   bands (ev):

   -15.9045 -13.6704 -12.3042 -10.7230  -9.7630  -8.9757  -6.7757  -6.5963
    -4.0992  -3.6940  -3.0864  -1.6003   0.3612   1.9124   1.9871   2.8023

          k = 0.1000 0.4041 0.0000 ( 14874 PWs)   bands (ev):

   -15.6603 -14.1780 -12.4380 -10.6877  -9.2981  -8.5268  -6.7722  -6.2063
    -4.7379  -4.0748  -3.9408  -1.9316   0.2163   2.7084   2.9224   3.3546

          k = 0.1000 0.5196 0.0000 ( 14866 PWs)   bands (ev):

   -15.4082 -14.5676 -12.5116 -10.7237  -8.8042  -8.2003  -7.0981  -5.7778
    -5.1485  -4.6128  -4.0808  -2.0925   0.1240   3.2557   3.5690   3.9468

          k = 0.2000 0.3464 0.0000 ( 14877 PWs)   bands (ev):

   -15.6956 -14.0872 -12.5478 -10.3033  -9.7240  -8.5204  -6.8126  -6.2657
    -4.4666  -4.1373  -3.7253  -2.2452   1.0221   1.9904   2.3693   3.2797

          k = 0.2000 0.4619 0.0000 ( 14880 PWs)   bands (ev):

   -15.4305 -14.4914 -12.7251 -10.1538  -9.3278  -8.1403  -7.2712  -5.8350
    -4.6466  -4.3816  -4.2707  -2.6185   1.1816   2.7533   2.7568   3.7531

          k = 0.2000 0.5774 0.0000 ( 14890 PWs)   bands (ev):

   -15.2443 -14.7265 -12.7873 -10.1485  -8.9968  -7.9854  -7.6216  -5.5106
    -4.7907  -4.7895  -4.1866  -2.7361   1.1750   3.0200   3.3386   3.5216

          k = 0.3000 0.5196 0.0000 ( 14851 PWs)   bands (ev):

   -15.1560 -14.8032 -12.9030  -9.6435  -9.3304  -7.9144  -7.8545  -5.3885
    -4.8379  -4.4738  -4.3648  -3.0053   2.0864   2.7171   2.8957   3.2688

     the Fermi energy is    -0.5619 ev

!    total energy              =     -49.98757598 Ry
     estimated scf accuracy    <       0.00000088 Ry
     smearing contrib. (-TS)   =       0.00037771 Ry
     internal energy E=F+TS    =     -49.98795369 Ry

     The total energy is F=E-TS. E is the sum of the following terms:
     one-electron contribution =    -179.80402765 Ry
     hartree contribution      =      94.52211524 Ry
     xc contribution           =     -23.27417903 Ry
     ewald contribution        =      58.56813775 Ry

     convergence has been achieved in   6 iterations

     Writing all to output data dir ../../outdir/borophene.save/

     init_run     :     20.13s CPU     12.27s WALL (       1 calls)
     electrons    :    224.63s CPU    150.91s WALL (       1 calls)

     Called by init_run:
     wfcinit      :     18.30s CPU     10.64s WALL (       1 calls)
     potinit      :      0.42s CPU      0.28s WALL (       1 calls)
     hinit0       :      1.14s CPU      0.98s WALL (       1 calls)

     Called by electrons:
     c_bands      :    185.13s CPU    124.69s WALL (       6 calls)
     sum_band     :     36.21s CPU     23.64s WALL (       6 calls)
     v_of_rho     :      2.46s CPU      1.54s WALL (       7 calls)
     newd         :      0.94s CPU      1.15s WALL (       7 calls)
     mix_rho      :      0.29s CPU      0.24s WALL (       6 calls)

     Called by c_bands:
     init_us_2    :      2.13s CPU      1.68s WALL (     182 calls)
     init_us_2:cp :      2.12s CPU      1.68s WALL (     182 calls)
     cegterg      :    180.99s CPU    121.54s WALL (      84 calls)

     Called by *egterg:
     cdiaghg      :      0.33s CPU      0.22s WALL (     371 calls)
     h_psi        :    175.55s CPU    129.66s WALL (     385 calls)
     s_psi        :      5.93s CPU     -9.46s WALL (     385 calls)
     g_psi        :      0.65s CPU      0.59s WALL (     287 calls)

     Called by h_psi:
     h_psi:calbec :      8.07s CPU      5.19s WALL (     385 calls)
     vloc_psi     :    160.92s CPU    120.47s WALL (     385 calls)
     add_vuspsi   :      5.53s CPU      3.07s WALL (     385 calls)

     General routines
     calbec       :     10.58s CPU      6.85s WALL (     469 calls)
     fft          :      1.61s CPU      1.17s WALL (      77 calls)
     ffts         :      0.10s CPU      0.07s WALL (       6 calls)
     fftw         :    147.24s CPU     72.33s WALL (    9786 calls)

     Parallel routines

     PWSCF        :   4m 4.99s CPU   2m43.71s WALL


   This run was terminated on:  12:20:47   3Jul2025            

=------------------------------------------------------------------------------=
   JOB DONE.
=------------------------------------------------------------------------------=
