
     Program PWSCF v.7.2 starts on  3Jul2025 at 11:31:29 

     This program is part of the open-source Quantum ESPRESSO suite
     for quantum simulation of materials; please cite
         "P. Giannozzi et al., J. Phys.:Condens. Matter 21 395502 (2009);
         "P. Giannozzi et al., J. Phys.:Condens. Matter 29 465901 (2017);
         "P. Giannozzi et al., J. Chem. Phys. 152 154105 (2020);
          URL http://www.quantum-espresso.org", 
     in publications or presentations arising from this work. More details at
     http://www.quantum-espresso.org/quote

     Parallel version (MPI & OpenMP), running on       2 processor cores
     Number of MPI processes:                 1
     Threads/MPI process:                     2

     MPI processes distributed on     1 nodes
     435 MiB available memory on the printing compute node when the environment starts

     Reading input from ../latticeparam/alpha_80_9.64.in

     Current dimensions of program PWSCF are:
     Max number of different atomic species (ntypx) = 10
     Max number of k-points (npk) =  40000
     Max angular momentum in pseudopotentials (lmaxx) =  4
     file B.pbesol-n-rrkjus_psl.1.0.0.UPF: wavefunction(s)  2S renormalized

     IMPORTANT: XC functional enforced from input :
     Exchange-correlation= PBESOL
                           (   1   4  10   8   0   0   0)
     Any further DFT definition will be discarded
     Please, verify this is what you really want


     Subspace diagonalization in iterative solution of the eigenvalue problem:
     a serial algorithm will be used


     G-vector sticks info
     --------------------
     sticks:   dense  smooth     PW     G-vecs:    dense   smooth      PW
     Sum        2053    2053    559               149941   149941   21555

     Using Slab Decomposition



     bravais-lattice index     =            4
     lattice parameter (alat)  =       9.6400  a.u.
     unit-cell volume          =    1551.6427 (a.u.)^3
     number of atoms/cell      =            8
     number of atomic types    =            1
     number of electrons       =        24.00
     number of Kohn-Sham states=           16
     kinetic-energy cutoff     =      80.0000  Ry
     charge density cutoff     =     320.0000  Ry
     scf convergence threshold =      1.0E-06
     mixing beta               =       0.7000
     number of iterations used =            8  plain     mixing
     Exchange-correlation= PBESOL
                           (   1   4  10   8   0   0   0)

     celldm(1)=   9.640000  celldm(2)=   0.000000  celldm(3)=   2.000000
     celldm(4)=   0.000000  celldm(5)=   0.000000  celldm(6)=   0.000000

     crystal axes: (cart. coord. in units of alat)
               a(1) = (   1.000000   0.000000   0.000000 )  
               a(2) = (  -0.500000   0.866025   0.000000 )  
               a(3) = (   0.000000   0.000000   2.000000 )  

     reciprocal axes: (cart. coord. in units 2 pi/alat)
               b(1) = (  1.000000  0.577350 -0.000000 )  
               b(2) = (  0.000000  1.154701  0.000000 )  
               b(3) = (  0.000000 -0.000000  0.500000 )  


     PseudoPot. # 1 for B  read from file:
     ../../pseudo/B.pbesol-n-rrkjus_psl.1.0.0.UPF
     MD5 check sum: a3839a09b1a4e02f2a06a66adc9253fc
     Pseudo is Ultrasoft + core correction, Zval =  3.0
     Generated using &quot;atomic&quot; code by A. Dal Corso  v.6.3MaX
     Using radial grid of 1059 points,  4 beta functions with: 
                l(1) =   0
                l(2) =   0
                l(3) =   1
                l(4) =   1
     Q(r) pseudized with 0 coefficients 


     atomic species   valence    mass     pseudopotential
        B              3.00    10.81100     B ( 1.00)

     24 Sym. Ops., with inversion, found



   Cartesian axes

     site n.     atom                  positions (alat units)
         1           B   tau(   1) = (   0.3333330   0.0000000   0.0000000  )
         2           B   tau(   2) = (   0.6666670   0.0000000   0.0000000  )
         3           B   tau(   3) = (  -0.1666665   0.2886748   0.0000000  )
         4           B   tau(   4) = (   0.1666665   0.2886748   0.0000000  )
         5           B   tau(   5) = (   0.5000005   0.2886748   0.0000000  )
         6           B   tau(   6) = (  -0.3333335   0.5773506   0.0000000  )
         7           B   tau(   7) = (  -0.0000005   0.5773506   0.0000000  )
         8           B   tau(   8) = (   0.3333335   0.5773506   0.0000000  )

     number of k points=    12  Marzari-Vanderbilt smearing, width (Ry)=  0.0350
                       cart. coord. in units 2pi/alat
        k(    1) = (   0.0000000   0.0000000   0.0000000), wk =   0.0246914
        k(    2) = (   0.0000000   0.1283001   0.0000000), wk =   0.1481481
        k(    3) = (   0.0000000   0.2566001   0.0000000), wk =   0.1481481
        k(    4) = (   0.0000000   0.3849002   0.0000000), wk =   0.1481481
        k(    5) = (   0.0000000   0.5132002   0.0000000), wk =   0.1481481
        k(    6) = (   0.1111111   0.1924501   0.0000000), wk =   0.1481481
        k(    7) = (   0.1111111   0.3207501   0.0000000), wk =   0.2962963
        k(    8) = (   0.1111111   0.4490502   0.0000000), wk =   0.2962963
        k(    9) = (   0.1111111   0.5773503   0.0000000), wk =   0.1481481
        k(   10) = (   0.2222222   0.3849002   0.0000000), wk =   0.1481481
        k(   11) = (   0.2222222   0.5132002   0.0000000), wk =   0.2962963
        k(   12) = (   0.3333333   0.5773503   0.0000000), wk =   0.0493827

     Dense  grid:   149941 G-vectors     FFT dimensions: (  60,  60, 120)

     Estimated max dynamical RAM per process >     286.92 MB

     Check: negative core charge=   -0.000001

     Initial potential from superposition of free atoms

     starting charge      23.9977, renormalised to      24.0000

     negative rho (up, down):  8.653E-06 0.000E+00
     Starting wfcs are   32 randomized atomic wfcs

     total cpu time spent up to now is       -0.7 secs

     per-process dynamical memory:   164.9 Mb

     Self-consistent Calculation

     iteration #  1     ecut=    80.00 Ry     beta= 0.70
     Davidson diagonalization with overlap
     ethr =  1.00E-02,  avg # of iterations =  2.0

     negative rho (up, down):  1.774E-04 0.000E+00

     total cpu time spent up to now is       17.3 secs

     total energy              =     -49.87635419 Ry
     estimated scf accuracy    <       0.65171544 Ry

     iteration #  2     ecut=    80.00 Ry     beta= 0.70
     Davidson diagonalization with overlap
     ethr =  2.72E-03,  avg # of iterations =  2.0

     negative rho (up, down):  3.613E-04 0.000E+00

     total cpu time spent up to now is       80.6 secs

     total energy              =     -49.98210910 Ry
     estimated scf accuracy    <       0.01649489 Ry

     iteration #  3     ecut=    80.00 Ry     beta= 0.70
     Davidson diagonalization with overlap
     ethr =  6.87E-05,  avg # of iterations =  3.8

     negative rho (up, down):  4.298E-04 0.000E+00

     total cpu time spent up to now is      100.8 secs

     total energy              =     -49.98630225 Ry
     estimated scf accuracy    <       0.00444406 Ry

     iteration #  4     ecut=    80.00 Ry     beta= 0.70
     Davidson diagonalization with overlap
     ethr =  1.85E-05,  avg # of iterations =  2.8

     negative rho (up, down):  5.032E-04 0.000E+00

     total cpu time spent up to now is      104.8 secs

     total energy              =     -49.98727158 Ry
     estimated scf accuracy    <       0.00016115 Ry

     iteration #  5     ecut=    80.00 Ry     beta= 0.70
     Davidson diagonalization with overlap
     ethr =  6.71E-07,  avg # of iterations =  7.1

     negative rho (up, down):  5.090E-04 0.000E+00

     total cpu time spent up to now is      117.5 secs

     total energy              =     -49.98729139 Ry
     estimated scf accuracy    <       0.00001737 Ry

     iteration #  6     ecut=    80.00 Ry     beta= 0.70
     Davidson diagonalization with overlap
     ethr =  7.24E-08,  avg # of iterations =  2.5

     negative rho (up, down):  5.094E-04 0.000E+00

     total cpu time spent up to now is      134.9 secs

     total energy              =     -49.98729625 Ry
     estimated scf accuracy    <       0.00000107 Ry

     iteration #  7     ecut=    80.00 Ry     beta= 0.70
     Davidson diagonalization with overlap
     ethr =  4.44E-09,  avg # of iterations =  2.8

     negative rho (up, down):  5.094E-04 0.000E+00

     total cpu time spent up to now is      139.9 secs

     End of self-consistent calculation

          k = 0.0000 0.0000 0.0000 ( 18817 PWs)   bands (ev):

   -16.1685 -12.0831 -11.9999 -11.9999  -9.7882  -9.7882  -7.6442  -7.0421
    -2.2320  -2.2320  -0.7357  -0.2297  -0.2297  -0.0045  -0.0045   0.4021

          k = 0.0000 0.1283 0.0000 ( 18789 PWs)   bands (ev):

   -16.1137 -12.7468 -12.0520 -11.3807  -9.8514  -9.6463  -7.4102  -6.9584
    -2.8339  -2.7426  -1.6720  -0.6686  -0.0759   0.5555   0.6440   1.0043

          k = 0.0000 0.2566 0.0000 ( 18772 PWs)   bands (ev):

   -15.9523 -13.4263 -12.1670 -10.9759  -9.7499  -9.2734  -6.9412  -6.7104
    -3.8655  -3.5771  -2.8079  -1.1626  -0.2866   1.5789   1.8056   1.9850

          k = 0.0000 0.3849 0.0000 ( 18750 PWs)   bands (ev):

   -15.6988 -14.0400 -12.2771 -10.9545  -9.2280  -8.7870  -6.7016  -6.3124
    -4.8250  -4.1058  -3.8248  -1.5039  -0.5032   2.5823   2.9583   3.1251

          k = 0.0000 0.5132 0.0000 ( 18754 PWs)   bands (ev):

   -15.4200 -14.5033 -12.3406 -11.0165  -8.6688  -8.3836  -6.9060  -5.8465
    -5.4683  -4.6060  -4.1618  -1.6763  -0.6270   3.1029   3.4953   3.8253

          k = 0.1111 0.1925 0.0000 ( 18751 PWs)   bands (ev):

   -16.0054 -13.2390 -12.1796 -10.9582  -9.9112  -9.3485  -7.0668  -6.7924
    -3.6125  -3.3256  -2.4602  -1.3140   0.2735   1.1407   1.1457   1.6276

          k = 0.1111 0.3208 0.0000 ( 18752 PWs)   bands (ev):

   -15.7959 -13.8129 -12.3655 -10.6681  -9.7116  -8.8634  -6.7624  -6.4672
    -4.4383  -3.9866  -3.3990  -1.8591   0.2780   1.8884   1.9284   2.9271

          k = 0.1111 0.4491 0.0000 ( 18746 PWs)   bands (ev):

   -15.5123 -14.3363 -12.5026 -10.6695  -9.1436  -8.3839  -6.9578  -6.0129
    -5.0215  -4.2705  -4.2396  -2.1657   0.1450   2.5701   3.0529   3.4892

          k = 0.1111 0.5774 0.0000 ( 18742 PWs)   bands (ev):

   -15.3141 -14.6176 -12.5515 -10.6940  -8.7696  -8.1607  -7.2636  -5.6661
    -5.2817  -4.7624  -4.1960  -2.2649   0.0903   2.9817   3.0272   4.0116

          k = 0.2222 0.3849 0.0000 ( 18764 PWs)   bands (ev):

   -15.5474 -14.2470 -12.6431 -10.1826  -9.6568  -8.3635  -7.0246  -6.0754
    -4.6177  -4.4075  -4.0471  -2.5305   1.0617   1.9993   2.1903   3.4329

          k = 0.2222 0.5132 0.0000 ( 18746 PWs)   bands (ev):

   -15.2540 -14.6422 -12.8067 -10.0406  -9.2180  -8.0280  -7.6220  -5.5960
    -4.7742  -4.6821  -4.3748  -2.8581   1.2540   2.5062   2.8264   3.0676

          k = 0.3333 0.5774 0.0000 ( 18756 PWs)   bands (ev):

   -14.9530 -14.9530 -12.9295  -9.4557  -9.4556  -8.0371  -7.8992  -5.1240
    -5.1240  -4.5201  -4.5201  -3.1268   2.3321   2.3321   2.6534   2.6534

     the Fermi energy is    -0.6804 ev

!    total energy              =     -49.98729653 Ry
     estimated scf accuracy    <       0.00000004 Ry
     smearing contrib. (-TS)   =       0.00027957 Ry
     internal energy E=F+TS    =     -49.98757610 Ry

     The total energy is F=E-TS. E is the sum of the following terms:
     one-electron contribution =    -178.64577347 Ry
     hartree contribution      =      93.81477060 Ry
     xc contribution           =     -23.11715768 Ry
     ewald contribution        =      57.96058445 Ry

     convergence has been achieved in   7 iterations

     Writing all to output data dir ../../outdir/borophene.save/

     init_run     :     16.81s CPU     -0.83s WALL (       1 calls)
     electrons    :    206.72s CPU    140.66s WALL (       1 calls)

     Called by init_run:
     wfcinit      :     14.99s CPU     -2.37s WALL (       1 calls)
     potinit      :      0.38s CPU      0.22s WALL (       1 calls)
     hinit0       :      1.20s CPU      1.05s WALL (       1 calls)

     Called by electrons:
     c_bands      :    170.91s CPU     59.88s WALL (       7 calls)
     sum_band     :     32.62s CPU     78.49s WALL (       7 calls)
     v_of_rho     :      2.43s CPU      1.34s WALL (       8 calls)
     newd         :      0.87s CPU      1.01s WALL (       8 calls)
     mix_rho      :      0.25s CPU      0.22s WALL (       7 calls)

     Called by c_bands:
     init_us_2    :      1.73s CPU      1.42s WALL (     180 calls)
     init_us_2:cp :      1.73s CPU      1.42s WALL (     180 calls)
     cegterg      :    167.31s CPU     57.19s WALL (      84 calls)

     Called by *egterg:
     cdiaghg      :      0.22s CPU      0.15s WALL (     358 calls)
     h_psi        :    163.00s CPU     65.24s WALL (     370 calls)
     s_psi        :      4.74s CPU      2.85s WALL (     370 calls)
     g_psi        :      0.55s CPU      0.53s WALL (     274 calls)

     Called by h_psi:
     h_psi:calbec :      6.84s CPU     -6.28s WALL (     370 calls)
     vloc_psi     :    150.67s CPU     68.38s WALL (     370 calls)
     add_vuspsi   :      4.72s CPU      2.47s WALL (     370 calls)

     General routines
     calbec       :      8.96s CPU     -4.90s WALL (     454 calls)
     fft          :      1.63s CPU      1.21s WALL (      88 calls)
     ffts         :      0.07s CPU      0.06s WALL (       7 calls)
     fftw         :    142.14s CPU    135.84s WALL (    9508 calls)

     Parallel routines

     PWSCF        :   3m43.73s CPU   2m20.25s WALL


   This run was terminated on:  11:33:49   3Jul2025            

=------------------------------------------------------------------------------=
   JOB DONE.
=------------------------------------------------------------------------------=
