
     Program PWSCF v.7.2 starts on 22Jul2025 at 15:35:57 

     This program is part of the open-source Quantum ESPRESSO suite
     for quantum simulation of materials; please cite
         "P. Giannozzi et al., J. Phys.:Condens. Matter 21 395502 (2009);
         "P. Giannozzi et al., J. Phys.:Condens. Matter 29 465901 (2017);
         "P. Giannozzi et al., J. Chem. Phys. 152 154105 (2020);
          URL http://www.quantum-espresso.org", 
     in publications or presentations arising from this work. More details at
     http://www.quantum-espresso.org/quote

     Parallel version (MPI & OpenMP), running on       2 processor cores
     Number of MPI processes:                 1
     Threads/MPI process:                     2

     MPI processes distributed on     1 nodes
     319 MiB available memory on the printing compute node when the environment starts

     Reading input from ../latticeparam/alpha_9.0.in

     Current dimensions of program PWSCF are:
     Max number of different atomic species (ntypx) = 10
     Max number of k-points (npk) =  40000
     Max angular momentum in pseudopotentials (lmaxx) =  4
     file B.pbesol-n-rrkjus_psl.1.0.0.UPF: wavefunction(s)  2S renormalized

     Subspace diagonalization in iterative solution of the eigenvalue problem:
     a serial algorithm will be used


     G-vector sticks info
     --------------------
     sticks:   dense  smooth     PW     G-vecs:    dense   smooth      PW
     Sum        1555    1555    433                99953    99953   14727

     Using Slab Decomposition



     bravais-lattice index     =            4
     lattice parameter (alat)  =       9.0000  a.u.
     unit-cell volume          =    1262.6650 (a.u.)^3
     number of atoms/cell      =            8
     number of atomic types    =            1
     number of electrons       =        24.00
     number of Kohn-Sham states=           16
     kinetic-energy cutoff     =      70.0000  Ry
     charge density cutoff     =     280.0000  Ry
     scf convergence threshold =      1.0E-06
     mixing beta               =       0.7000
     number of iterations used =            8  plain     mixing
     Exchange-correlation= PBESOL
                           (   1   4  10   8   0   0   0)

     celldm(1)=   9.000000  celldm(2)=   0.000000  celldm(3)=   2.000000
     celldm(4)=   0.000000  celldm(5)=   0.000000  celldm(6)=   0.000000

     crystal axes: (cart. coord. in units of alat)
               a(1) = (   1.000000   0.000000   0.000000 )  
               a(2) = (  -0.500000   0.866025   0.000000 )  
               a(3) = (   0.000000   0.000000   2.000000 )  

     reciprocal axes: (cart. coord. in units 2 pi/alat)
               b(1) = (  1.000000  0.577350 -0.000000 )  
               b(2) = (  0.000000  1.154701  0.000000 )  
               b(3) = (  0.000000 -0.000000  0.500000 )  


     PseudoPot. # 1 for B  read from file:
     ../../pseudo/B.pbesol-n-rrkjus_psl.1.0.0.UPF
     MD5 check sum: a3839a09b1a4e02f2a06a66adc9253fc
     Pseudo is Ultrasoft + core correction, Zval =  3.0
     Generated using &quot;atomic&quot; code by A. Dal Corso  v.6.3MaX
     Using radial grid of 1059 points,  4 beta functions with: 
                l(1) =   0
                l(2) =   0
                l(3) =   1
                l(4) =   1
     Q(r) pseudized with 0 coefficients 


     atomic species   valence    mass     pseudopotential
        B              3.00    10.81100     B ( 1.00)

     24 Sym. Ops., with inversion, found



   Cartesian axes

     site n.     atom                  positions (alat units)
         1           B   tau(   1) = (   0.3333330   0.0000000   0.0000000  )
         2           B   tau(   2) = (   0.6666670   0.0000000   0.0000000  )
         3           B   tau(   3) = (  -0.1666665   0.2886748   0.0000000  )
         4           B   tau(   4) = (   0.1666665   0.2886748   0.0000000  )
         5           B   tau(   5) = (   0.5000005   0.2886748   0.0000000  )
         6           B   tau(   6) = (  -0.3333335   0.5773506   0.0000000  )
         7           B   tau(   7) = (  -0.0000005   0.5773506   0.0000000  )
         8           B   tau(   8) = (   0.3333335   0.5773506   0.0000000  )

     number of k points=    12  Marzari-Vanderbilt smearing, width (Ry)=  0.0350
                       cart. coord. in units 2pi/alat
        k(    1) = (   0.0000000   0.0000000   0.0000000), wk =   0.0246914
        k(    2) = (   0.0000000   0.1283001   0.0000000), wk =   0.1481481
        k(    3) = (   0.0000000   0.2566001   0.0000000), wk =   0.1481481
        k(    4) = (   0.0000000   0.3849002   0.0000000), wk =   0.1481481
        k(    5) = (   0.0000000   0.5132002   0.0000000), wk =   0.1481481
        k(    6) = (   0.1111111   0.1924501   0.0000000), wk =   0.1481481
        k(    7) = (   0.1111111   0.3207501   0.0000000), wk =   0.2962963
        k(    8) = (   0.1111111   0.4490502   0.0000000), wk =   0.2962963
        k(    9) = (   0.1111111   0.5773503   0.0000000), wk =   0.1481481
        k(   10) = (   0.2222222   0.3849002   0.0000000), wk =   0.1481481
        k(   11) = (   0.2222222   0.5132002   0.0000000), wk =   0.2962963
        k(   12) = (   0.3333333   0.5773503   0.0000000), wk =   0.0493827

     Dense  grid:    99953 G-vectors     FFT dimensions: (  48,  48,  96)

     Estimated max dynamical RAM per process >     186.75 MB

     Initial potential from superposition of free atoms

     starting charge      23.9977, renormalised to      24.0000

     negative rho (up, down):  1.540E-06 0.000E+00
     Starting wfcs are   32 randomized atomic wfcs

     total cpu time spent up to now is        5.3 secs

     per-process dynamical memory:   107.7 Mb

     Self-consistent Calculation

     iteration #  1     ecut=    70.00 Ry     beta= 0.70
     Davidson diagonalization with overlap
     ethr =  1.00E-02,  avg # of iterations =  2.5

     negative rho (up, down):  2.231E-04 0.000E+00

     total cpu time spent up to now is       17.1 secs

     total energy              =     -49.66086049 Ry
     estimated scf accuracy    <       1.14428328 Ry

     iteration #  2     ecut=    70.00 Ry     beta= 0.70
     Davidson diagonalization with overlap
     ethr =  4.77E-03,  avg # of iterations =  2.0

     negative rho (up, down):  5.058E-04 0.000E+00

     total cpu time spent up to now is       27.7 secs

     total energy              =     -49.85306357 Ry
     estimated scf accuracy    <       0.03486661 Ry

     iteration #  3     ecut=    70.00 Ry     beta= 0.70
     Davidson diagonalization with overlap
     ethr =  1.45E-04,  avg # of iterations =  5.9

     negative rho (up, down):  6.342E-04 0.000E+00

     total cpu time spent up to now is       31.8 secs

     total energy              =     -49.86257580 Ry
     estimated scf accuracy    <       0.00718794 Ry

     iteration #  4     ecut=    70.00 Ry     beta= 0.70
     Davidson diagonalization with overlap
     ethr =  2.99E-05,  avg # of iterations =  3.2

     negative rho (up, down):  7.768E-04 0.000E+00

     total cpu time spent up to now is       43.6 secs

     total energy              =     -49.86414612 Ry
     estimated scf accuracy    <       0.00022355 Ry

     iteration #  5     ecut=    70.00 Ry     beta= 0.70
     Davidson diagonalization with overlap
     ethr =  9.31E-07,  avg # of iterations =  5.2

     negative rho (up, down):  7.858E-04 0.000E+00

     total cpu time spent up to now is       58.0 secs

     total energy              =     -49.86417405 Ry
     estimated scf accuracy    <       0.00002112 Ry

     iteration #  6     ecut=    70.00 Ry     beta= 0.70
     Davidson diagonalization with overlap
     ethr =  8.80E-08,  avg # of iterations =  2.4

     negative rho (up, down):  7.854E-04 0.000E+00

     total cpu time spent up to now is       58.5 secs

     total energy              =     -49.86418004 Ry
     estimated scf accuracy    <       0.00000107 Ry

     iteration #  7     ecut=    70.00 Ry     beta= 0.70
     Davidson diagonalization with overlap
     ethr =  4.45E-09,  avg # of iterations =  2.6

     negative rho (up, down):  7.851E-04 0.000E+00

     total cpu time spent up to now is       69.9 secs

     End of self-consistent calculation

          k = 0.0000 0.0000 0.0000 ( 12449 PWs)   bands (ev):

   -16.3913 -12.0249 -11.9800 -11.9800  -9.3970  -9.3970  -7.4989  -7.2628
    -1.1364  -1.1364   0.1082   0.6544   0.6544   1.4210   1.4211   1.5137

          k = 0.0000 0.1283 0.0000 ( 12443 PWs)   bands (ev):

   -16.3317 -12.7414 -12.0224 -11.2997  -9.5254  -9.2642  -7.2151  -7.1655
    -1.7888  -1.6992  -1.0082   0.1485   0.8513   2.1208   2.1778   2.2566

          k = 0.0000 0.2566 0.0000 ( 12457 PWs)   bands (ev):

   -16.1566 -13.4568 -12.1191 -10.8300  -9.5370  -8.9102  -6.8768  -6.6923
    -2.9078  -2.6074  -2.3385  -0.4270   0.5759   3.2046   3.2745   3.4545

          k = 0.0000 0.3849 0.0000 ( 12493 PWs)   bands (ev):

   -15.8813 -14.1076 -12.2146 -10.7880  -9.0579  -8.4471  -6.4423  -6.4130
    -3.9277  -3.5272  -3.1832  -0.8250   0.3019   3.7324   4.6246   4.7557

          k = 0.0000 0.5132 0.0000 ( 12462 PWs)   bands (ev):

   -15.5779 -14.6038 -12.2707 -10.8593  -8.4943  -8.0725  -6.6331  -5.8666
    -4.5854  -4.4425  -3.2862  -1.0260   0.1478   4.4436   5.3392   5.8468

          k = 0.1111 0.1925 0.0000 ( 12462 PWs)   bands (ev):

   -16.2142 -13.2589 -12.1376 -10.8351  -9.6498  -8.9950  -6.9723  -6.8272
    -2.6164  -2.3580  -1.9285  -0.6186   1.2753   2.2314   2.9345   3.1318

          k = 0.1111 0.3208 0.0000 ( 12480 PWs)   bands (ev):

   -15.9868 -13.8649 -12.3158 -10.4901  -9.5058  -8.5509  -6.5936  -6.5026
    -3.5030  -3.0786  -3.0250  -1.2620   1.2547   3.1650   3.5192   3.9807

          k = 0.1111 0.4491 0.0000 ( 12491 PWs)   bands (ev):

   -15.6790 -14.4223 -12.4519 -10.4837  -8.9284  -8.1113  -6.6736  -6.0630
    -4.1569  -4.0446  -3.3607  -1.6215   1.0804   4.1393   4.5110   4.9679

          k = 0.1111 0.5774 0.0000 ( 12510 PWs)   bands (ev):

   -15.4630 -14.7248 -12.5011 -10.5109  -8.5402  -7.9116  -6.9636  -5.6544
    -4.6234  -4.4324  -3.3428  -1.7376   1.0111   4.8369   5.0601   5.6106

          k = 0.2222 0.3849 0.0000 ( 12512 PWs)   bands (ev):

   -15.7174 -14.3244 -12.6068  -9.9576  -9.4478  -8.1073  -6.7368  -6.1368
    -3.7756  -3.7325  -3.5591  -2.0604   2.1998   3.2208   4.0306   4.5682

          k = 0.2222 0.5132 0.0000 ( 12516 PWs)   bands (ev):

   -15.3996 -14.7460 -12.7819  -9.8070  -8.9684  -7.8095  -7.3261  -5.5758
    -4.5167  -3.9456  -3.5414  -2.4473   2.4027   4.2478   4.7168   5.1517

          k = 0.3333 0.5774 0.0000 ( 12498 PWs)   bands (ev):

   -15.0766 -15.0765 -12.9165  -9.1878  -9.1877  -7.7672  -7.6989  -5.0258
    -5.0258  -3.7018  -3.7018  -2.7688   3.6956   3.6956   5.2603   5.2603

     the Fermi energy is     0.1421 ev

!    total energy              =     -49.86418034 Ry
     estimated scf accuracy    <       0.00000005 Ry
     smearing contrib. (-TS)   =      -0.00044154 Ry
     internal energy E=F+TS    =     -49.86373881 Ry

     The total energy is F=E-TS. E is the sum of the following terms:
     one-electron contribution =    -186.32750156 Ry
     hartree contribution      =      98.57178800 Ry
     xc contribution           =     -24.19025126 Ry
     ewald contribution        =      62.08222601 Ry

     convergence has been achieved in   7 iterations

     Writing all to output data dir ../../outdir/borophene.save/

     init_run     :      7.20s CPU      5.26s WALL (       1 calls)
     electrons    :    108.20s CPU     64.56s WALL (       1 calls)

     Called by init_run:
     wfcinit      :      6.18s CPU      4.30s WALL (       1 calls)
     potinit      :      0.14s CPU      0.10s WALL (       1 calls)
     hinit0       :      0.78s CPU      0.73s WALL (       1 calls)

     Called by electrons:
     c_bands      :     87.85s CPU     60.77s WALL (       7 calls)
     sum_band     :     19.08s CPU      2.61s WALL (       7 calls)
     v_of_rho     :      0.86s CPU      0.65s WALL (       8 calls)
     newd         :      0.42s CPU      0.54s WALL (       8 calls)
     mix_rho      :      0.11s CPU      0.11s WALL (       7 calls)

     Called by c_bands:
     init_us_2    :      0.81s CPU      0.79s WALL (     180 calls)
     init_us_2:cp :      0.81s CPU      0.79s WALL (     180 calls)
     cegterg      :     86.40s CPU     59.49s WALL (      84 calls)

     Called by *egterg:
     cdiaghg      :      0.20s CPU      0.20s WALL (     369 calls)
     h_psi        :     84.82s CPU     58.05s WALL (     381 calls)
     s_psi        :      1.77s CPU      1.11s WALL (     381 calls)
     g_psi        :      0.27s CPU      0.28s WALL (     285 calls)

     Called by h_psi:
     h_psi:calbec :      2.19s CPU      2.21s WALL (     381 calls)
     vloc_psi     :     80.74s CPU     54.40s WALL (     381 calls)
     add_vuspsi   :      1.61s CPU      1.12s WALL (     381 calls)

     General routines
     calbec       :      2.91s CPU      2.87s WALL (     465 calls)
     fft          :      0.78s CPU      0.75s WALL (      88 calls)
     ffts         :      0.02s CPU      0.01s WALL (       7 calls)
     fftw         :     80.88s CPU     46.67s WALL (    9806 calls)

     Parallel routines

     PWSCF        :   1m55.49s CPU   1m10.05s WALL


   This run was terminated on:  15:37: 7  22Jul2025            

=------------------------------------------------------------------------------=
   JOB DONE.
=------------------------------------------------------------------------------=
