
     Program PWSCF v.7.2 starts on  3Jul2025 at 11:56:39 

     This program is part of the open-source Quantum ESPRESSO suite
     for quantum simulation of materials; please cite
         "P. Giannozzi et al., J. Phys.:Condens. Matter 21 395502 (2009);
         "P. Giannozzi et al., J. Phys.:Condens. Matter 29 465901 (2017);
         "P. Giannozzi et al., J. Chem. Phys. 152 154105 (2020);
          URL http://www.quantum-espresso.org", 
     in publications or presentations arising from this work. More details at
     http://www.quantum-espresso.org/quote

     Parallel version (MPI & OpenMP), running on       2 processor cores
     Number of MPI processes:                 1
     Threads/MPI process:                     2

     MPI processes distributed on     1 nodes
     378 MiB available memory on the printing compute node when the environment starts

     Reading input from ../latticeparam/alpha_8_9.58.in

     Current dimensions of program PWSCF are:
     Max number of different atomic species (ntypx) = 10
     Max number of k-points (npk) =  40000
     Max angular momentum in pseudopotentials (lmaxx) =  4
     file B.pbesol-n-rrkjus_psl.1.0.0.UPF: wavefunction(s)  2S renormalized

     IMPORTANT: XC functional enforced from input :
     Exchange-correlation= PBESOL
                           (   1   4  10   8   0   0   0)
     Any further DFT definition will be discarded
     Please, verify this is what you really want


     Subspace diagonalization in iterative solution of the eigenvalue problem:
     a serial algorithm will be used


     G-vector sticks info
     --------------------
     sticks:   dense  smooth     PW     G-vecs:    dense   smooth      PW
     Sum        1777    1777    499               120595   120595   17423

     Using Slab Decomposition



     bravais-lattice index     =            4
     lattice parameter (alat)  =       9.5800  a.u.
     unit-cell volume          =    1522.8501 (a.u.)^3
     number of atoms/cell      =            8
     number of atomic types    =            1
     number of electrons       =        24.00
     number of Kohn-Sham states=           16
     kinetic-energy cutoff     =      70.0000  Ry
     charge density cutoff     =     280.0000  Ry
     scf convergence threshold =      1.0E-06
     mixing beta               =       0.7000
     number of iterations used =            8  plain     mixing
     Exchange-correlation= PBESOL
                           (   1   4  10   8   0   0   0)

     celldm(1)=   9.580000  celldm(2)=   0.000000  celldm(3)=   2.000000
     celldm(4)=   0.000000  celldm(5)=   0.000000  celldm(6)=   0.000000

     crystal axes: (cart. coord. in units of alat)
               a(1) = (   1.000000   0.000000   0.000000 )  
               a(2) = (  -0.500000   0.866025   0.000000 )  
               a(3) = (   0.000000   0.000000   2.000000 )  

     reciprocal axes: (cart. coord. in units 2 pi/alat)
               b(1) = (  1.000000  0.577350 -0.000000 )  
               b(2) = (  0.000000  1.154701  0.000000 )  
               b(3) = (  0.000000 -0.000000  0.500000 )  


     PseudoPot. # 1 for B  read from file:
     ../../pseudo/B.pbesol-n-rrkjus_psl.1.0.0.UPF
     MD5 check sum: a3839a09b1a4e02f2a06a66adc9253fc
     Pseudo is Ultrasoft + core correction, Zval =  3.0
     Generated using &quot;atomic&quot; code by A. Dal Corso  v.6.3MaX
     Using radial grid of 1059 points,  4 beta functions with: 
                l(1) =   0
                l(2) =   0
                l(3) =   1
                l(4) =   1
     Q(r) pseudized with 0 coefficients 


     atomic species   valence    mass     pseudopotential
        B              3.00    10.81100     B ( 1.00)

     24 Sym. Ops., with inversion, found



   Cartesian axes

     site n.     atom                  positions (alat units)
         1           B   tau(   1) = (   0.3333330   0.0000000   0.0000000  )
         2           B   tau(   2) = (   0.6666670   0.0000000   0.0000000  )
         3           B   tau(   3) = (  -0.1666665   0.2886748   0.0000000  )
         4           B   tau(   4) = (   0.1666665   0.2886748   0.0000000  )
         5           B   tau(   5) = (   0.5000005   0.2886748   0.0000000  )
         6           B   tau(   6) = (  -0.3333335   0.5773506   0.0000000  )
         7           B   tau(   7) = (  -0.0000005   0.5773506   0.0000000  )
         8           B   tau(   8) = (   0.3333335   0.5773506   0.0000000  )

     number of k points=    10  Marzari-Vanderbilt smearing, width (Ry)=  0.0350
                       cart. coord. in units 2pi/alat
        k(    1) = (   0.0000000   0.0000000   0.0000000), wk =   0.0312500
        k(    2) = (   0.0000000   0.1443376   0.0000000), wk =   0.1875000
        k(    3) = (   0.0000000   0.2886751   0.0000000), wk =   0.1875000
        k(    4) = (   0.0000000   0.4330127   0.0000000), wk =   0.1875000
        k(    5) = (   0.0000000  -0.5773503   0.0000000), wk =   0.0937500
        k(    6) = (   0.1250000   0.2165064   0.0000000), wk =   0.1875000
        k(    7) = (   0.1250000   0.3608439   0.0000000), wk =   0.3750000
        k(    8) = (   0.1250000   0.5051815   0.0000000), wk =   0.3750000
        k(    9) = (   0.2500000   0.4330127   0.0000000), wk =   0.1875000
        k(   10) = (   0.2500000   0.5773503   0.0000000), wk =   0.1875000

     Dense  grid:   120595 G-vectors     FFT dimensions: (  54,  54, 108)

     Estimated max dynamical RAM per process >     221.15 MB

     Initial potential from superposition of free atoms

     starting charge      23.9977, renormalised to      24.0000

     negative rho (up, down):  4.485E-05 0.000E+00
     Starting wfcs are   32 randomized atomic wfcs

     total cpu time spent up to now is        5.4 secs

     per-process dynamical memory:   124.8 Mb

     Self-consistent Calculation

     iteration #  1     ecut=    70.00 Ry     beta= 0.70
     Davidson diagonalization with overlap
     ethr =  1.00E-02,  avg # of iterations =  2.0

     negative rho (up, down):  3.632E-04 0.000E+00

     total cpu time spent up to now is       15.4 secs

     total energy              =     -49.87007085 Ry
     estimated scf accuracy    <       0.68864174 Ry

     iteration #  2     ecut=    70.00 Ry     beta= 0.70
     Davidson diagonalization with overlap
     ethr =  2.87E-03,  avg # of iterations =  2.0

     negative rho (up, down):  6.336E-04 0.000E+00

     total cpu time spent up to now is       15.2 secs

     total energy              =     -49.98224945 Ry
     estimated scf accuracy    <       0.01768468 Ry

     iteration #  3     ecut=    70.00 Ry     beta= 0.70
     Davidson diagonalization with overlap
     ethr =  7.37E-05,  avg # of iterations =  2.9

     negative rho (up, down):  7.291E-04 0.000E+00

     total cpu time spent up to now is       25.8 secs

     total energy              =     -49.98677541 Ry
     estimated scf accuracy    <       0.00466888 Ry

     iteration #  4     ecut=    70.00 Ry     beta= 0.70
     Davidson diagonalization with overlap
     ethr =  1.95E-05,  avg # of iterations =  4.2

     negative rho (up, down):  8.290E-04 0.000E+00

     total cpu time spent up to now is       37.1 secs

     total energy              =     -49.98779248 Ry
     estimated scf accuracy    <       0.00016805 Ry

     iteration #  5     ecut=    70.00 Ry     beta= 0.70
     Davidson diagonalization with overlap
     ethr =  7.00E-07,  avg # of iterations =  5.4

     negative rho (up, down):  8.390E-04 0.000E+00

     total cpu time spent up to now is       38.7 secs

     total energy              =     -49.98781241 Ry
     estimated scf accuracy    <       0.00001413 Ry

     iteration #  6     ecut=    70.00 Ry     beta= 0.70
     Davidson diagonalization with overlap
     ethr =  5.89E-08,  avg # of iterations =  2.7

     negative rho (up, down):  8.394E-04 0.000E+00

     total cpu time spent up to now is       48.7 secs

     End of self-consistent calculation

          k = 0.0000 0.0000 0.0000 ( 15117 PWs)   bands (ev):

   -16.1958 -12.0842 -12.0037 -12.0036  -9.7585  -9.7585  -7.6312  -7.0624
    -2.1407  -2.1407  -0.6670  -0.1546  -0.1546   0.1225   0.1225   0.4896

          k = 0.0000 0.1443 0.0000 ( 15080 PWs)   bands (ev):

   -16.1260 -12.8401 -12.0671 -11.3071  -9.8350  -9.5815  -7.3386  -6.9551
    -2.8707  -2.7609  -1.7645  -0.6683  -0.0164   0.8123   0.9160   1.2132

          k = 0.0000 0.2887 0.0000 ( 15028 PWs)   bands (ev):

   -15.9218 -13.5980 -12.1982 -10.9351  -9.6371  -9.1299  -6.8195  -6.6383
    -4.0432  -3.6750  -3.0417  -1.2021  -0.2742   2.0051   2.2648   2.3718

          k = 0.0000 0.4330 0.0000 ( 15074 PWs)   bands (ev):

   -15.6119 -14.2544 -12.3077 -10.9704  -8.9841  -8.5856  -6.7241  -6.1422
    -5.0460  -4.1381  -4.0889  -1.5321  -0.4960   3.0871   3.4093   3.5277

          k = 0.0000-0.5774 0.0000 ( 15062 PWs)   bands (ev):

   -15.3807 -14.6034 -12.3485 -11.0168  -8.5541  -8.2955  -6.9529  -5.7356
    -5.4904  -4.7478  -4.0751  -1.6429  -0.5777   3.2857   3.7580   4.1616

          k = 0.1250 0.2165 0.0000 ( 15067 PWs)   bands (ev):

   -15.9886 -13.3879 -12.2293 -10.8417  -9.8926  -9.2119  -6.9476  -6.7427
    -3.7514  -3.4181  -2.6439  -1.4248   0.4313   1.3385   1.4768   2.0940

          k = 0.1250 0.3608 0.0000 ( 15063 PWs)   bands (ev):

   -15.7261 -14.0143 -12.4465 -10.5782  -9.5765  -8.6498  -6.7557  -6.3303
    -4.5623  -4.0762  -3.6750  -2.0099   0.4424   2.2804   2.2824   3.1679

          k = 0.1250 0.5052 0.0000 ( 15079 PWs)   bands (ev):

   -15.4021 -14.5380 -12.5752 -10.6002  -8.9334  -8.1923  -7.1703  -5.7941
    -5.0700  -4.5634  -4.1615  -2.2811   0.3257   2.9555   3.4472   3.5904

          k = 0.2500 0.4330 0.0000 ( 15063 PWs)   bands (ev):

   -15.4214 -14.4693 -12.7570  -9.9859  -9.5131  -8.1445  -7.3106  -5.8425
    -4.4972  -4.4658  -4.3486  -2.7266   1.4358   2.3326   2.5408   3.6612

          k = 0.2500 0.5774 0.0000 ( 15047 PWs)   bands (ev):

   -15.1497 -14.7940 -12.8762  -9.8494  -9.1663  -7.9333  -7.8407  -5.3875
    -4.8752  -4.6514  -4.3149  -2.9659   1.6593   2.8027   3.0468   3.0862

     the Fermi energy is    -0.6075 ev

!    total energy              =     -49.98781631 Ry
     estimated scf accuracy    <       0.00000044 Ry
     smearing contrib. (-TS)   =      -0.00032537 Ry
     internal energy E=F+TS    =     -49.98749095 Ry

     The total energy is F=E-TS. E is the sum of the following terms:
     one-electron contribution =    -179.33732849 Ry
     hartree contribution      =      94.23725672 Ry
     xc contribution           =     -23.21101355 Ry
     ewald contribution        =      58.32359438 Ry

     convergence has been achieved in   6 iterations

     Writing all to output data dir ../../outdir/borophene.save/

     init_run     :      7.32s CPU      5.28s WALL (       1 calls)
     electrons    :     86.70s CPU     43.39s WALL (       1 calls)

     Called by init_run:
     wfcinit      :      6.23s CPU      4.25s WALL (       1 calls)
     potinit      :      0.19s CPU      0.14s WALL (       1 calls)
     hinit0       :      0.76s CPU      0.67s WALL (       1 calls)

     Called by electrons:
     c_bands      :     69.95s CPU     40.54s WALL (       6 calls)
     sum_band     :     15.36s CPU     11.83s WALL (       6 calls)
     v_of_rho     :      1.02s CPU     -9.49s WALL (       7 calls)
     newd         :      0.42s CPU      0.56s WALL (       7 calls)
     mix_rho      :      0.14s CPU      0.12s WALL (       6 calls)

     Called by c_bands:
     init_us_2    :      0.75s CPU      0.66s WALL (     130 calls)
     init_us_2:cp :      0.75s CPU      0.66s WALL (     130 calls)
     cegterg      :     68.64s CPU     39.47s WALL (      60 calls)

     Called by *egterg:
     cdiaghg      :      0.13s CPU      0.08s WALL (     252 calls)
     h_psi        :     68.45s CPU     39.50s WALL (     262 calls)
     s_psi        :      1.53s CPU      0.86s WALL (     262 calls)
     g_psi        :      0.18s CPU      0.18s WALL (     192 calls)

     Called by h_psi:
     h_psi:calbec :      1.78s CPU      1.58s WALL (     262 calls)
     vloc_psi     :     65.01s CPU     36.86s WALL (     262 calls)
     add_vuspsi   :      1.43s CPU      0.81s WALL (     262 calls)

     General routines
     calbec       :      2.39s CPU      2.05s WALL (     322 calls)
     fft          :      0.83s CPU     -9.51s WALL (      77 calls)
     ffts         :      0.04s CPU      0.03s WALL (       6 calls)
     fftw         :     66.67s CPU     48.93s WALL (    6912 calls)

     Parallel routines

     PWSCF        :   1m34.15s CPU     48.88s WALL


   This run was terminated on:  11:57:28   3Jul2025            

=------------------------------------------------------------------------------=
   JOB DONE.
=------------------------------------------------------------------------------=
