
     Program PWSCF v.7.2 starts on  3Jul2025 at 12:26:24 

     This program is part of the open-source Quantum ESPRESSO suite
     for quantum simulation of materials; please cite
         "P. Giannozzi et al., J. Phys.:Condens. Matter 21 395502 (2009);
         "P. Giannozzi et al., J. Phys.:Condens. Matter 29 465901 (2017);
         "P. Giannozzi et al., J. Chem. Phys. 152 154105 (2020);
          URL http://www.quantum-espresso.org", 
     in publications or presentations arising from this work. More details at
     http://www.quantum-espresso.org/quote

     Parallel version (MPI & OpenMP), running on       2 processor cores
     Number of MPI processes:                 1
     Threads/MPI process:                     2

     MPI processes distributed on     1 nodes
     407 MiB available memory on the printing compute node when the environment starts

     Reading input from ../latticeparam/alpha_10_9.6.in

     Current dimensions of program PWSCF are:
     Max number of different atomic species (ntypx) = 10
     Max number of k-points (npk) =  40000
     Max angular momentum in pseudopotentials (lmaxx) =  4
     file B.pbesol-n-rrkjus_psl.1.0.0.UPF: wavefunction(s)  2S renormalized

     IMPORTANT: XC functional enforced from input :
     Exchange-correlation= PBESOL
                           (   1   4  10   8   0   0   0)
     Any further DFT definition will be discarded
     Please, verify this is what you really want


     Subspace diagonalization in iterative solution of the eigenvalue problem:
     a serial algorithm will be used


     G-vector sticks info
     --------------------
     sticks:   dense  smooth     PW     G-vecs:    dense   smooth      PW
     Sum        1789    1789    499               121627   121627   17423

     Using Slab Decomposition



     bravais-lattice index     =            4
     lattice parameter (alat)  =       9.6000  a.u.
     unit-cell volume          =    1532.4077 (a.u.)^3
     number of atoms/cell      =            8
     number of atomic types    =            1
     number of electrons       =        24.00
     number of Kohn-Sham states=           16
     kinetic-energy cutoff     =      70.0000  Ry
     charge density cutoff     =     280.0000  Ry
     scf convergence threshold =      1.0E-06
     mixing beta               =       0.7000
     number of iterations used =            8  plain     mixing
     Exchange-correlation= PBESOL
                           (   1   4  10   8   0   0   0)

     celldm(1)=   9.600000  celldm(2)=   0.000000  celldm(3)=   2.000000
     celldm(4)=   0.000000  celldm(5)=   0.000000  celldm(6)=   0.000000

     crystal axes: (cart. coord. in units of alat)
               a(1) = (   1.000000   0.000000   0.000000 )  
               a(2) = (  -0.500000   0.866025   0.000000 )  
               a(3) = (   0.000000   0.000000   2.000000 )  

     reciprocal axes: (cart. coord. in units 2 pi/alat)
               b(1) = (  1.000000  0.577350 -0.000000 )  
               b(2) = (  0.000000  1.154701  0.000000 )  
               b(3) = (  0.000000 -0.000000  0.500000 )  


     PseudoPot. # 1 for B  read from file:
     ../../pseudo/B.pbesol-n-rrkjus_psl.1.0.0.UPF
     MD5 check sum: a3839a09b1a4e02f2a06a66adc9253fc
     Pseudo is Ultrasoft + core correction, Zval =  3.0
     Generated using &quot;atomic&quot; code by A. Dal Corso  v.6.3MaX
     Using radial grid of 1059 points,  4 beta functions with: 
                l(1) =   0
                l(2) =   0
                l(3) =   1
                l(4) =   1
     Q(r) pseudized with 0 coefficients 


     atomic species   valence    mass     pseudopotential
        B              3.00    10.81100     B ( 1.00)

     24 Sym. Ops., with inversion, found



   Cartesian axes

     site n.     atom                  positions (alat units)
         1           B   tau(   1) = (   0.3333330   0.0000000   0.0000000  )
         2           B   tau(   2) = (   0.6666670   0.0000000   0.0000000  )
         3           B   tau(   3) = (  -0.1666665   0.2886748   0.0000000  )
         4           B   tau(   4) = (   0.1666665   0.2886748   0.0000000  )
         5           B   tau(   5) = (   0.5000005   0.2886748   0.0000000  )
         6           B   tau(   6) = (  -0.3333335   0.5773506   0.0000000  )
         7           B   tau(   7) = (  -0.0000005   0.5773506   0.0000000  )
         8           B   tau(   8) = (   0.3333335   0.5773506   0.0000000  )

     number of k points=    14  Marzari-Vanderbilt smearing, width (Ry)=  0.0350
                       cart. coord. in units 2pi/alat
        k(    1) = (   0.0000000   0.0000000   0.0000000), wk =   0.0200000
        k(    2) = (   0.0000000   0.1154701   0.0000000), wk =   0.1200000
        k(    3) = (   0.0000000   0.2309401   0.0000000), wk =   0.1200000
        k(    4) = (   0.0000000   0.3464102   0.0000000), wk =   0.1200000
        k(    5) = (   0.0000000   0.4618802   0.0000000), wk =   0.1200000
        k(    6) = (   0.0000000  -0.5773503   0.0000000), wk =   0.0600000
        k(    7) = (   0.1000000   0.1732051   0.0000000), wk =   0.1200000
        k(    8) = (   0.1000000   0.2886751   0.0000000), wk =   0.2400000
        k(    9) = (   0.1000000   0.4041452   0.0000000), wk =   0.2400000
        k(   10) = (   0.1000000   0.5196152   0.0000000), wk =   0.2400000
        k(   11) = (   0.2000000   0.3464102   0.0000000), wk =   0.1200000
        k(   12) = (   0.2000000   0.4618802   0.0000000), wk =   0.2400000
        k(   13) = (   0.2000000   0.5773503   0.0000000), wk =   0.1200000
        k(   14) = (   0.3000000   0.5196152   0.0000000), wk =   0.1200000

     Dense  grid:   121627 G-vectors     FFT dimensions: (  54,  54, 108)

     Estimated max dynamical RAM per process >     237.53 MB

     Initial potential from superposition of free atoms

     starting charge      23.9977, renormalised to      24.0000

     negative rho (up, down):  4.477E-05 0.000E+00
     Starting wfcs are   32 randomized atomic wfcs

     total cpu time spent up to now is       12.7 secs

     per-process dynamical memory:   141.1 Mb

     Self-consistent Calculation

     iteration #  1     ecut=    70.00 Ry     beta= 0.70
     Davidson diagonalization with overlap
     ethr =  1.00E-02,  avg # of iterations =  2.0

     negative rho (up, down):  3.556E-04 0.000E+00

     total cpu time spent up to now is       23.5 secs

     total energy              =     -49.87233505 Ry
     estimated scf accuracy    <       0.67639731 Ry

     iteration #  2     ecut=    70.00 Ry     beta= 0.70
     Davidson diagonalization with overlap
     ethr =  2.82E-03,  avg # of iterations =  2.0

     negative rho (up, down):  6.320E-04 0.000E+00

     total cpu time spent up to now is       44.7 secs

     total energy              =     -49.98248804 Ry
     estimated scf accuracy    <       0.01763719 Ry

     iteration #  3     ecut=    70.00 Ry     beta= 0.70
     Davidson diagonalization with overlap
     ethr =  7.35E-05,  avg # of iterations =  3.2

     negative rho (up, down):  7.298E-04 0.000E+00

     total cpu time spent up to now is       56.9 secs

     total energy              =     -49.98702446 Ry
     estimated scf accuracy    <       0.00466198 Ry

     iteration #  4     ecut=    70.00 Ry     beta= 0.70
     Davidson diagonalization with overlap
     ethr =  1.94E-05,  avg # of iterations =  3.5

     negative rho (up, down):  8.326E-04 0.000E+00

     total cpu time spent up to now is       79.7 secs

     total energy              =     -49.98803250 Ry
     estimated scf accuracy    <       0.00016204 Ry

     iteration #  5     ecut=    70.00 Ry     beta= 0.70
     Davidson diagonalization with overlap
     ethr =  6.75E-07,  avg # of iterations =  5.6

     negative rho (up, down):  8.414E-04 0.000E+00

     total cpu time spent up to now is       96.2 secs

     total energy              =     -49.98805147 Ry
     estimated scf accuracy    <       0.00001530 Ry

     iteration #  6     ecut=    70.00 Ry     beta= 0.70
     Davidson diagonalization with overlap
     ethr =  6.38E-08,  avg # of iterations =  2.4

     negative rho (up, down):  8.417E-04 0.000E+00

     total cpu time spent up to now is      116.1 secs

     End of self-consistent calculation

          k = 0.0000 0.0000 0.0000 ( 15117 PWs)   bands (ev):

   -16.1863 -12.0833 -12.0017 -12.0017  -9.7681  -9.7681  -7.6353  -7.0552
    -2.1708  -2.1708  -0.6896  -0.1794  -0.1794   0.0803   0.0803   0.4604

          k = 0.0000 0.1155 0.0000 ( 15146 PWs)   bands (ev):

   -16.1416 -12.6800 -12.0441 -11.4390  -9.8267  -9.6528  -7.4399  -6.9868
    -2.6804  -2.6032  -1.5181  -0.5660  -0.0121   0.5549   0.6298   0.9809

          k = 0.0000 0.2309 0.0000 ( 15148 PWs)   bands (ev):

   -16.0096 -13.2994 -12.1430 -11.0162  -9.7955  -9.3426  -7.0190  -6.7834
    -3.6028  -3.3651  -2.5595  -1.0321  -0.1890   1.4692   1.6657   1.8461

          k = 0.0000 0.3464 0.0000 ( 15142 PWs)   bands (ev):

   -15.7985 -13.8732 -12.2474 -10.9315  -9.4031  -8.9180  -6.7071  -6.4531
    -4.5074  -3.9503  -3.5179  -1.3794  -0.3990   2.4157   2.7425   2.8507

          k = 0.0000 0.4619 0.0000 ( 15132 PWs)   bands (ev):

   -15.5379 -14.3572 -12.3216 -10.9887  -8.8551  -8.4990  -6.7835  -6.0294
    -5.2198  -4.3266  -4.1226  -1.5904  -0.5471   3.1703   3.5342   3.6703

          k = 0.0000-0.5774 0.0000 ( 15242 PWs)   bands (ev):

   -15.3732 -14.5975 -12.3481 -11.0197  -8.5572  -8.3024  -6.9599  -5.7347
    -5.5147  -4.7509  -4.0994  -1.6611  -0.5994   3.2075   3.6942   4.1149

          k = 0.1000 0.1732 0.0000 ( 15155 PWs)   bands (ev):

   -16.0532 -13.1295 -12.1456 -11.0464  -9.8913  -9.4118  -7.1370  -6.8508
    -3.3736  -3.1303  -2.2452  -1.1379   0.2772   1.1009   1.1197   1.4805

          k = 0.1000 0.2887 0.0000 ( 15165 PWs)   bands (ev):

   -15.8806 -13.6609 -12.3036 -10.7334  -9.7783  -9.0000  -6.7958  -6.5829
    -4.1789  -3.7708  -3.1215  -1.6543   0.2776   1.8084   1.8157   2.6393

          k = 0.1000 0.4041 0.0000 ( 15167 PWs)   bands (ev):

   -15.6383 -14.1655 -12.4376 -10.6998  -9.3127  -8.5482  -6.7936  -6.1985
    -4.8115  -4.1499  -3.9637  -1.9807   0.1364   2.5130   2.8018   3.3013

          k = 0.1000 0.5196 0.0000 ( 15150 PWs)   bands (ev):

   -15.3881 -14.5526 -12.5112 -10.7355  -8.8202  -8.2189  -7.1220  -5.7762
    -5.2192  -4.6260  -4.1531  -2.1393   0.0461   3.0372   3.3387   3.8669

          k = 0.2000 0.3464 0.0000 ( 15191 PWs)   bands (ev):

   -15.6733 -14.0754 -12.5465 -10.3175  -9.7386  -8.5406  -6.8342  -6.2570
    -4.5433  -4.2089  -3.7518  -2.2890   0.9271   1.8874   2.1755   3.2282

          k = 0.2000 0.4619 0.0000 ( 15153 PWs)   bands (ev):

   -15.4102 -14.4772 -12.7230 -10.1694  -9.3446  -8.1570  -7.2953  -5.8323
    -4.7163  -4.3988  -4.3414  -2.6566   1.0860   2.5414   2.6362   3.5220

          k = 0.2000 0.5774 0.0000 ( 15138 PWs)   bands (ev):

   -15.2254 -14.7108 -12.7847 -10.1641  -9.0156  -8.0005  -7.6458  -5.5128
    -4.8581  -4.8020  -4.2560  -2.7725   1.0802   2.7947   3.1003   3.3882

          k = 0.3000 0.5196 0.0000 ( 15127 PWs)   bands (ev):

   -15.1377 -14.7872 -12.8995  -9.6624  -9.3489  -7.9285  -7.8773  -5.3922
    -4.8492  -4.5420  -4.4330  -3.0372   1.9755   2.5989   2.6663   3.0310

     the Fermi energy is    -0.6330 ev

!    total energy              =     -49.98805576 Ry
     estimated scf accuracy    <       0.00000063 Ry
     smearing contrib. (-TS)   =       0.00044437 Ry
     internal energy E=F+TS    =     -49.98850013 Ry

     The total energy is F=E-TS. E is the sum of the following terms:
     one-electron contribution =    -179.10677405 Ry
     hartree contribution      =      94.09582449 Ry
     xc contribution           =     -23.17963745 Ry
     ewald contribution        =      58.20208689 Ry

     convergence has been achieved in   6 iterations

     Writing all to output data dir ../../outdir/borophene.save/

     init_run     :     20.49s CPU     12.52s WALL (       1 calls)
     electrons    :    215.05s CPU    103.46s WALL (       1 calls)

     Called by init_run:
     wfcinit      :     18.54s CPU     10.83s WALL (       1 calls)
     potinit      :      0.45s CPU      0.28s WALL (       1 calls)
     hinit0       :      1.22s CPU      1.05s WALL (       1 calls)

     Called by electrons:
     c_bands      :    177.01s CPU     89.69s WALL (       6 calls)
     sum_band     :     34.94s CPU     11.18s WALL (       6 calls)
     v_of_rho     :      2.28s CPU      1.44s WALL (       7 calls)
     newd         :      0.98s CPU      1.26s WALL (       7 calls)
     mix_rho      :      0.26s CPU      0.24s WALL (       6 calls)

     Called by c_bands:
     init_us_2    :      2.14s CPU      1.76s WALL (     182 calls)
     init_us_2:cp :      2.14s CPU      1.76s WALL (     182 calls)
     cegterg      :    172.79s CPU     86.43s WALL (      84 calls)

     Called by *egterg:
     cdiaghg      :      0.31s CPU      0.22s WALL (     346 calls)
     h_psi        :    168.62s CPU     82.13s WALL (     360 calls)
     s_psi        :      5.77s CPU      3.46s WALL (     360 calls)
     g_psi        :      0.60s CPU      0.59s WALL (     262 calls)

     Called by h_psi:
     h_psi:calbec :      7.57s CPU      5.28s WALL (     360 calls)
     vloc_psi     :    154.70s CPU     72.95s WALL (     360 calls)
     add_vuspsi   :      5.47s CPU      3.02s WALL (     360 calls)

     General routines
     calbec       :      9.69s CPU      6.83s WALL (     444 calls)
     fft          :      1.59s CPU      1.13s WALL (      77 calls)
     ffts         :      0.08s CPU      0.06s WALL (       6 calls)
     fftw         :    142.00s CPU     55.61s WALL (    9694 calls)

     Parallel routines

     PWSCF        :   3m55.80s CPU   1m56.48s WALL


   This run was terminated on:  12:28:21   3Jul2025            

=------------------------------------------------------------------------------=
   JOB DONE.
=------------------------------------------------------------------------------=
