
     Program PWSCF v.7.2 starts on  3Jul2025 at 10:51:29 

     This program is part of the open-source Quantum ESPRESSO suite
     for quantum simulation of materials; please cite
         "P. Giannozzi et al., J. Phys.:Condens. Matter 21 395502 (2009);
         "P. Giannozzi et al., J. Phys.:Condens. Matter 29 465901 (2017);
         "P. Giannozzi et al., J. Chem. Phys. 152 154105 (2020);
          URL http://www.quantum-espresso.org", 
     in publications or presentations arising from this work. More details at
     http://www.quantum-espresso.org/quote

     Parallel version (MPI & OpenMP), running on       2 processor cores
     Number of MPI processes:                 1
     Threads/MPI process:                     2

     MPI processes distributed on     1 nodes
     269 MiB available memory on the printing compute node when the environment starts

     Reading input from ../latticeparam/alpha_50_9.54.in

     Current dimensions of program PWSCF are:
     Max number of different atomic species (ntypx) = 10
     Max number of k-points (npk) =  40000
     Max angular momentum in pseudopotentials (lmaxx) =  4
     file B.pbesol-n-rrkjus_psl.1.0.0.UPF: wavefunction(s)  2S renormalized

     IMPORTANT: XC functional enforced from input :
     Exchange-correlation= PBESOL
                           (   1   4  10   8   0   0   0)
     Any further DFT definition will be discarded
     Please, verify this is what you really want


     Subspace diagonalization in iterative solution of the eigenvalue problem:
     a serial algorithm will be used


     G-vector sticks info
     --------------------
     sticks:   dense  smooth     PW     G-vecs:    dense   smooth      PW
     Sum        1261    1261    361                71809    71809   10725

     Using Slab Decomposition



     bravais-lattice index     =            4
     lattice parameter (alat)  =       9.5400  a.u.
     unit-cell volume          =    1503.8543 (a.u.)^3
     number of atoms/cell      =            8
     number of atomic types    =            1
     number of electrons       =        24.00
     number of Kohn-Sham states=           16
     kinetic-energy cutoff     =      50.0000  Ry
     charge density cutoff     =     200.0000  Ry
     scf convergence threshold =      1.0E-06
     mixing beta               =       0.7000
     number of iterations used =            8  plain     mixing
     Exchange-correlation= PBESOL
                           (   1   4  10   8   0   0   0)

     celldm(1)=   9.540000  celldm(2)=   0.000000  celldm(3)=   2.000000
     celldm(4)=   0.000000  celldm(5)=   0.000000  celldm(6)=   0.000000

     crystal axes: (cart. coord. in units of alat)
               a(1) = (   1.000000   0.000000   0.000000 )  
               a(2) = (  -0.500000   0.866025   0.000000 )  
               a(3) = (   0.000000   0.000000   2.000000 )  

     reciprocal axes: (cart. coord. in units 2 pi/alat)
               b(1) = (  1.000000  0.577350 -0.000000 )  
               b(2) = (  0.000000  1.154701  0.000000 )  
               b(3) = (  0.000000 -0.000000  0.500000 )  


     PseudoPot. # 1 for B  read from file:
     ../../pseudo/B.pbesol-n-rrkjus_psl.1.0.0.UPF
     MD5 check sum: a3839a09b1a4e02f2a06a66adc9253fc
     Pseudo is Ultrasoft + core correction, Zval =  3.0
     Generated using &quot;atomic&quot; code by A. Dal Corso  v.6.3MaX
     Using radial grid of 1059 points,  4 beta functions with: 
                l(1) =   0
                l(2) =   0
                l(3) =   1
                l(4) =   1
     Q(r) pseudized with 0 coefficients 


     atomic species   valence    mass     pseudopotential
        B              3.00    10.81100     B ( 1.00)

     24 Sym. Ops., with inversion, found



   Cartesian axes

     site n.     atom                  positions (alat units)
         1           B   tau(   1) = (   0.3333330   0.0000000   0.0000000  )
         2           B   tau(   2) = (   0.6666670   0.0000000   0.0000000  )
         3           B   tau(   3) = (  -0.1666665   0.2886748   0.0000000  )
         4           B   tau(   4) = (   0.1666665   0.2886748   0.0000000  )
         5           B   tau(   5) = (   0.5000005   0.2886748   0.0000000  )
         6           B   tau(   6) = (  -0.3333335   0.5773506   0.0000000  )
         7           B   tau(   7) = (  -0.0000005   0.5773506   0.0000000  )
         8           B   tau(   8) = (   0.3333335   0.5773506   0.0000000  )

     number of k points=    12  Marzari-Vanderbilt smearing, width (Ry)=  0.0350
                       cart. coord. in units 2pi/alat
        k(    1) = (   0.0000000   0.0000000   0.0000000), wk =   0.0246914
        k(    2) = (   0.0000000   0.1283001   0.0000000), wk =   0.1481481
        k(    3) = (   0.0000000   0.2566001   0.0000000), wk =   0.1481481
        k(    4) = (   0.0000000   0.3849002   0.0000000), wk =   0.1481481
        k(    5) = (   0.0000000   0.5132002   0.0000000), wk =   0.1481481
        k(    6) = (   0.1111111   0.1924501   0.0000000), wk =   0.1481481
        k(    7) = (   0.1111111   0.3207501   0.0000000), wk =   0.2962963
        k(    8) = (   0.1111111   0.4490502   0.0000000), wk =   0.2962963
        k(    9) = (   0.1111111   0.5773503   0.0000000), wk =   0.1481481
        k(   10) = (   0.2222222   0.3849002   0.0000000), wk =   0.1481481
        k(   11) = (   0.2222222   0.5132002   0.0000000), wk =   0.2962963
        k(   12) = (   0.3333333   0.5773503   0.0000000), wk =   0.0493827

     Dense  grid:    71809 G-vectors     FFT dimensions: (  45,  45,  90)

     Estimated max dynamical RAM per process >     135.84 MB

     Check: negative core charge=   -0.000004

     Initial potential from superposition of free atoms

     starting charge      23.9977, renormalised to      24.0000

     negative rho (up, down):  3.134E-04 0.000E+00
     Starting wfcs are   32 randomized atomic wfcs

     total cpu time spent up to now is        7.0 secs

     per-process dynamical memory:    81.3 Mb

     Self-consistent Calculation

     iteration #  1     ecut=    50.00 Ry     beta= 0.70
     Davidson diagonalization with overlap
     ethr =  1.00E-02,  avg # of iterations =  2.0

     negative rho (up, down):  2.350E-03 0.000E+00

     total cpu time spent up to now is       19.0 secs

     total energy              =     -49.86348904 Ry
     estimated scf accuracy    <       0.71449877 Ry

     iteration #  2     ecut=    50.00 Ry     beta= 0.70
     Davidson diagonalization with overlap
     ethr =  2.98E-03,  avg # of iterations =  2.0

     negative rho (up, down):  3.672E-03 0.000E+00

     total cpu time spent up to now is       29.3 secs

     total energy              =     -49.98047562 Ry
     estimated scf accuracy    <       0.01892301 Ry

     iteration #  3     ecut=    50.00 Ry     beta= 0.70
     Davidson diagonalization with overlap
     ethr =  7.88E-05,  avg # of iterations =  5.0

     negative rho (up, down):  4.095E-03 0.000E+00

     total cpu time spent up to now is       29.5 secs

     total energy              =     -49.98533278 Ry
     estimated scf accuracy    <       0.00489425 Ry

     iteration #  4     ecut=    50.00 Ry     beta= 0.70
     Davidson diagonalization with overlap
     ethr =  2.04E-05,  avg # of iterations =  4.1

     negative rho (up, down):  4.497E-03 0.000E+00

     total cpu time spent up to now is       41.3 secs

     total energy              =     -49.98640194 Ry
     estimated scf accuracy    <       0.00017335 Ry

     iteration #  5     ecut=    50.00 Ry     beta= 0.70
     Davidson diagonalization with overlap
     ethr =  7.22E-07,  avg # of iterations =  6.1

     negative rho (up, down):  4.534E-03 0.000E+00

     total cpu time spent up to now is       54.8 secs

     total energy              =     -49.98642172 Ry
     estimated scf accuracy    <       0.00001511 Ry

     iteration #  6     ecut=    50.00 Ry     beta= 0.70
     Davidson diagonalization with overlap
     ethr =  6.29E-08,  avg # of iterations =  2.3

     negative rho (up, down):  4.535E-03 0.000E+00

     total cpu time spent up to now is      113.6 secs

     End of self-consistent calculation

          k = 0.0000 0.0000 0.0000 (  9007 PWs)   bands (ev):

   -16.2162 -12.0887 -12.0100 -12.0100  -9.7428  -9.7427  -7.6276  -7.0751
    -2.0836  -2.0836  -0.6187  -0.1038  -0.1038   0.2054   0.2054   0.5483

          k = 0.0000 0.1283 0.0000 (  8991 PWs)   bands (ev):

   -16.1607 -12.7600 -12.0606 -11.3819  -9.8145  -9.6022  -7.3875  -6.9895
    -2.6926  -2.6016  -1.5792  -0.5520   0.0560   0.7809   0.8676   1.1644

          k = 0.0000 0.2566 0.0000 (  8951 PWs)   bands (ev):

   -15.9973 -13.4451 -12.1729 -10.9664  -9.7294  -9.2320  -6.9119  -6.7357
    -3.7366  -3.4459  -2.7426  -1.0577  -0.1641   1.8393   2.0618   2.1698

          k = 0.0000 0.3849 0.0000 (  8972 PWs)   bands (ev):

   -15.7407 -14.0644 -12.2810 -10.9412  -9.2144  -8.7489  -6.6719  -6.3284
    -4.7047  -3.9800  -3.7838  -1.4071  -0.3890   2.8796   3.0736   3.2569

          k = 0.0000 0.5132 0.0000 (  8962 PWs)   bands (ev):

   -15.4584 -14.5325 -12.3435 -11.0042  -8.6552  -8.3501  -6.8741  -5.8511
    -5.3494  -4.5841  -4.0426  -1.5836  -0.5172   3.4730   3.7066   3.8619

          k = 0.1111 0.1925 0.0000 (  8973 PWs)   bands (ev):

   -16.0511 -13.2562 -12.1863 -10.9527  -9.8830  -9.3089  -7.0386  -6.8196
    -3.4778  -3.1956  -2.3862  -1.2147   0.4158   1.2967   1.3987   1.8714

          k = 0.1111 0.3208 0.0000 (  8985 PWs)   bands (ev):

   -15.8390 -13.8350 -12.3710 -10.6538  -9.6916  -8.8299  -6.7324  -6.4868
    -4.3116  -3.8646  -3.3473  -1.7739   0.4169   2.1049   2.1819   2.8748

          k = 0.1111 0.4491 0.0000 (  8991 PWs)   bands (ev):

   -15.5519 -14.3636 -12.5080 -10.6535  -9.1229  -8.3566  -6.9240  -6.0217
    -4.9059  -4.2398  -4.1204  -2.0882   0.2779   2.9075   3.2611   3.4329

          k = 0.1111 0.5774 0.0000 (  8994 PWs)   bands (ev):

   -15.3512 -14.6479 -12.5568 -10.6783  -8.7474  -8.1372  -7.2266  -5.6662
    -5.1684  -4.7440  -4.0804  -2.1899   0.2211   3.3386   3.4159   4.0910

          k = 0.2222 0.3849 0.0000 (  8989 PWs)   bands (ev):

   -15.5875 -14.2731 -12.6502 -10.1617  -9.6364  -8.3383  -6.9904  -6.0858
    -4.4980  -4.2944  -4.0101  -2.4634   1.2236   2.1737   2.5251   3.3390

          k = 0.2222 0.5132 0.0000 (  8986 PWs)   bands (ev):

   -15.2905 -14.6724 -12.8153 -10.0180  -9.1930  -8.0086  -7.5858  -5.5948
    -4.6636  -4.6602  -4.2629  -2.7995   1.4176   2.8746   3.0295   3.4599

          k = 0.3333 0.5774 0.0000 (  8961 PWs)   bands (ev):

   -14.9863 -14.9862 -12.9397  -9.4286  -9.4285  -8.0039  -7.8824  -5.1118
    -5.1117  -4.4107  -4.4106  -3.0756   2.5263   2.5264   3.0388   3.0388

     the Fermi energy is    -0.5631 ev

!    total energy              =     -49.98642591 Ry
     estimated scf accuracy    <       0.00000077 Ry
     smearing contrib. (-TS)   =       0.00015944 Ry
     internal energy E=F+TS    =     -49.98658535 Ry

     The total energy is F=E-TS. E is the sum of the following terms:
     one-electron contribution =    -179.79068758 Ry
     hartree contribution      =      94.51509050 Ry
     xc contribution           =     -23.27912601 Ry
     ewald contribution        =      58.56813774 Ry

     convergence has been achieved in   6 iterations

     Writing all to output data dir ../../outdir/borophene.save/

     init_run     :      8.99s CPU      6.88s WALL (       1 calls)
     electrons    :     84.80s CPU    106.63s WALL (       1 calls)

     Called by init_run:
     wfcinit      :      7.96s CPU      5.87s WALL (       1 calls)
     potinit      :      0.21s CPU      0.17s WALL (       1 calls)
     hinit0       :      0.66s CPU      0.61s WALL (       1 calls)

     Called by electrons:
     c_bands      :     68.79s CPU     93.11s WALL (       6 calls)
     sum_band     :     14.89s CPU     12.44s WALL (       6 calls)
     v_of_rho     :      0.88s CPU      0.72s WALL (       7 calls)
     newd         :      0.35s CPU      0.51s WALL (       7 calls)
     mix_rho      :      0.15s CPU      0.15s WALL (       6 calls)

     Called by c_bands:
     init_us_2    :      0.58s CPU      0.53s WALL (     156 calls)
     init_us_2:cp :      0.58s CPU      0.53s WALL (     156 calls)
     cegterg      :     67.83s CPU     92.22s WALL (      72 calls)

     Called by *egterg:
     cdiaghg      :      0.17s CPU      0.13s WALL (     330 calls)
     h_psi        :     70.44s CPU     93.86s WALL (     342 calls)
     s_psi        :      1.25s CPU      0.87s WALL (     342 calls)
     g_psi        :      0.20s CPU      0.19s WALL (     258 calls)

     Called by h_psi:
     h_psi:calbec :      1.76s CPU      1.55s WALL (     342 calls)
     vloc_psi     :     67.33s CPU     91.30s WALL (     342 calls)
     add_vuspsi   :      1.10s CPU      0.77s WALL (     342 calls)

     General routines
     calbec       :      2.24s CPU      1.96s WALL (     414 calls)
     fft          :      1.00s CPU      0.97s WALL (      77 calls)
     ffts         :      0.07s CPU      0.08s WALL (       6 calls)
     fftw         :     72.00s CPU     97.07s WALL (    8416 calls)

     Parallel routines

     PWSCF        :   1m33.86s CPU   1m53.69s WALL


   This run was terminated on:  10:53:23   3Jul2025            

=------------------------------------------------------------------------------=
   JOB DONE.
=------------------------------------------------------------------------------=
