
     Program PWSCF v.7.2 starts on  3Jul2025 at 10:53:23 

     This program is part of the open-source Quantum ESPRESSO suite
     for quantum simulation of materials; please cite
         "P. Giannozzi et al., J. Phys.:Condens. Matter 21 395502 (2009);
         "P. Giannozzi et al., J. Phys.:Condens. Matter 29 465901 (2017);
         "P. Giannozzi et al., J. Chem. Phys. 152 154105 (2020);
          URL http://www.quantum-espresso.org", 
     in publications or presentations arising from this work. More details at
     http://www.quantum-espresso.org/quote

     Parallel version (MPI & OpenMP), running on       2 processor cores
     Number of MPI processes:                 1
     Threads/MPI process:                     2

     MPI processes distributed on     1 nodes
     316 MiB available memory on the printing compute node when the environment starts

     Reading input from ../latticeparam/alpha_50_9.56.in

     Current dimensions of program PWSCF are:
     Max number of different atomic species (ntypx) = 10
     Max number of k-points (npk) =  40000
     Max angular momentum in pseudopotentials (lmaxx) =  4
     file B.pbesol-n-rrkjus_psl.1.0.0.UPF: wavefunction(s)  2S renormalized

     IMPORTANT: XC functional enforced from input :
     Exchange-correlation= PBESOL
                           (   1   4  10   8   0   0   0)
     Any further DFT definition will be discarded
     Please, verify this is what you really want


     Subspace diagonalization in iterative solution of the eigenvalue problem:
     a serial algorithm will be used


     G-vector sticks info
     --------------------
     sticks:   dense  smooth     PW     G-vecs:    dense   smooth      PW
     Sum        1261    1261    361                72279    72279   10929

     Using Slab Decomposition



     bravais-lattice index     =            4
     lattice parameter (alat)  =       9.5600  a.u.
     unit-cell volume          =    1513.3323 (a.u.)^3
     number of atoms/cell      =            8
     number of atomic types    =            1
     number of electrons       =        24.00
     number of Kohn-Sham states=           16
     kinetic-energy cutoff     =      50.0000  Ry
     charge density cutoff     =     200.0000  Ry
     scf convergence threshold =      1.0E-06
     mixing beta               =       0.7000
     number of iterations used =            8  plain     mixing
     Exchange-correlation= PBESOL
                           (   1   4  10   8   0   0   0)

     celldm(1)=   9.560000  celldm(2)=   0.000000  celldm(3)=   2.000000
     celldm(4)=   0.000000  celldm(5)=   0.000000  celldm(6)=   0.000000

     crystal axes: (cart. coord. in units of alat)
               a(1) = (   1.000000   0.000000   0.000000 )  
               a(2) = (  -0.500000   0.866025   0.000000 )  
               a(3) = (   0.000000   0.000000   2.000000 )  

     reciprocal axes: (cart. coord. in units 2 pi/alat)
               b(1) = (  1.000000  0.577350 -0.000000 )  
               b(2) = (  0.000000  1.154701  0.000000 )  
               b(3) = (  0.000000 -0.000000  0.500000 )  


     PseudoPot. # 1 for B  read from file:
     ../../pseudo/B.pbesol-n-rrkjus_psl.1.0.0.UPF
     MD5 check sum: a3839a09b1a4e02f2a06a66adc9253fc
     Pseudo is Ultrasoft + core correction, Zval =  3.0
     Generated using &quot;atomic&quot; code by A. Dal Corso  v.6.3MaX
     Using radial grid of 1059 points,  4 beta functions with: 
                l(1) =   0
                l(2) =   0
                l(3) =   1
                l(4) =   1
     Q(r) pseudized with 0 coefficients 


     atomic species   valence    mass     pseudopotential
        B              3.00    10.81100     B ( 1.00)

     24 Sym. Ops., with inversion, found



   Cartesian axes

     site n.     atom                  positions (alat units)
         1           B   tau(   1) = (   0.3333330   0.0000000   0.0000000  )
         2           B   tau(   2) = (   0.6666670   0.0000000   0.0000000  )
         3           B   tau(   3) = (  -0.1666665   0.2886748   0.0000000  )
         4           B   tau(   4) = (   0.1666665   0.2886748   0.0000000  )
         5           B   tau(   5) = (   0.5000005   0.2886748   0.0000000  )
         6           B   tau(   6) = (  -0.3333335   0.5773506   0.0000000  )
         7           B   tau(   7) = (  -0.0000005   0.5773506   0.0000000  )
         8           B   tau(   8) = (   0.3333335   0.5773506   0.0000000  )

     number of k points=    12  Marzari-Vanderbilt smearing, width (Ry)=  0.0350
                       cart. coord. in units 2pi/alat
        k(    1) = (   0.0000000   0.0000000   0.0000000), wk =   0.0246914
        k(    2) = (   0.0000000   0.1283001   0.0000000), wk =   0.1481481
        k(    3) = (   0.0000000   0.2566001   0.0000000), wk =   0.1481481
        k(    4) = (   0.0000000   0.3849002   0.0000000), wk =   0.1481481
        k(    5) = (   0.0000000   0.5132002   0.0000000), wk =   0.1481481
        k(    6) = (   0.1111111   0.1924501   0.0000000), wk =   0.1481481
        k(    7) = (   0.1111111   0.3207501   0.0000000), wk =   0.2962963
        k(    8) = (   0.1111111   0.4490502   0.0000000), wk =   0.2962963
        k(    9) = (   0.1111111   0.5773503   0.0000000), wk =   0.1481481
        k(   10) = (   0.2222222   0.3849002   0.0000000), wk =   0.1481481
        k(   11) = (   0.2222222   0.5132002   0.0000000), wk =   0.2962963
        k(   12) = (   0.3333333   0.5773503   0.0000000), wk =   0.0493827

     Dense  grid:    72279 G-vectors     FFT dimensions: (  45,  45,  90)

     Estimated max dynamical RAM per process >     136.64 MB

     Check: negative core charge=   -0.000004

     Initial potential from superposition of free atoms

     starting charge      23.9977, renormalised to      24.0000

     negative rho (up, down):  2.829E-04 0.000E+00
     Starting wfcs are   32 randomized atomic wfcs

     total cpu time spent up to now is        4.6 secs

     per-process dynamical memory:    81.8 Mb

     Self-consistent Calculation

     iteration #  1     ecut=    50.00 Ry     beta= 0.70
     Davidson diagonalization with overlap
     ethr =  1.00E-02,  avg # of iterations =  2.0

     negative rho (up, down):  2.309E-03 0.000E+00

     total cpu time spent up to now is       14.8 secs

     total energy              =     -49.86606794 Ry
     estimated scf accuracy    <       0.70206743 Ry

     iteration #  2     ecut=    50.00 Ry     beta= 0.70
     Davidson diagonalization with overlap
     ethr =  2.93E-03,  avg # of iterations =  2.0

     negative rho (up, down):  3.588E-03 0.000E+00

     total cpu time spent up to now is       13.5 secs

     total energy              =     -49.98100987 Ry
     estimated scf accuracy    <       0.01850433 Ry

     iteration #  3     ecut=    50.00 Ry     beta= 0.70
     Davidson diagonalization with overlap
     ethr =  7.71E-05,  avg # of iterations =  5.2

     negative rho (up, down):  3.989E-03 0.000E+00

     total cpu time spent up to now is       23.9 secs

     total energy              =     -49.98573975 Ry
     estimated scf accuracy    <       0.00482491 Ry

     iteration #  4     ecut=    50.00 Ry     beta= 0.70
     Davidson diagonalization with overlap
     ethr =  2.01E-05,  avg # of iterations =  3.9

     negative rho (up, down):  4.380E-03 0.000E+00

     total cpu time spent up to now is       34.4 secs

     total energy              =     -49.98679441 Ry
     estimated scf accuracy    <       0.00017176 Ry

     iteration #  5     ecut=    50.00 Ry     beta= 0.70
     Davidson diagonalization with overlap
     ethr =  7.16E-07,  avg # of iterations =  5.2

     negative rho (up, down):  4.416E-03 0.000E+00

     total cpu time spent up to now is       34.7 secs

     total energy              =     -49.98681403 Ry
     estimated scf accuracy    <       0.00001525 Ry

     iteration #  6     ecut=    50.00 Ry     beta= 0.70
     Davidson diagonalization with overlap
     ethr =  6.35E-08,  avg # of iterations =  2.7

     negative rho (up, down):  4.417E-03 0.000E+00

     total cpu time spent up to now is       44.1 secs

     End of self-consistent calculation

          k = 0.0000 0.0000 0.0000 (  9055 PWs)   bands (ev):

   -16.2076 -12.0888 -12.0090 -12.0089  -9.7528  -9.7527  -7.6315  -7.0687
    -2.1143  -2.1143  -0.6432  -0.1294  -0.1294   0.1622   0.1622   0.5186

          k = 0.0000 0.1283 0.0000 (  9055 PWs)   bands (ev):

   -16.1523 -12.7584 -12.0599 -11.3827  -9.8227  -9.6119  -7.3927  -6.9835
    -2.7219  -2.6308  -1.5985  -0.5757   0.0290   0.7346   0.8216   1.1319

          k = 0.0000 0.2566 0.0000 (  9013 PWs)   bands (ev):

   -15.9893 -13.4424 -12.1727 -10.9693  -9.7344  -9.2412  -6.9185  -6.7309
    -3.7634  -3.4731  -2.7562  -1.0790  -0.1893   1.7860   2.0093   2.1323

          k = 0.0000 0.3849 0.0000 (  9032 PWs)   bands (ev):

   -15.7333 -14.0606 -12.2812 -10.9448  -9.2181  -8.7575  -6.6786  -6.3255
    -4.7297  -4.0061  -3.7925  -1.4268  -0.4126   2.8204   3.0580   3.1960

          k = 0.0000 0.5132 0.0000 (  9020 PWs)   bands (ev):

   -15.4517 -14.5277 -12.3439 -11.0075  -8.6590  -8.3578  -6.8813  -5.8505
    -5.3741  -4.5888  -4.0673  -1.6025  -0.5399   3.4000   3.6782   3.8012

          k = 0.1111 0.1925 0.0000 (  9039 PWs)   bands (ev):

   -16.0429 -13.2538 -12.1859 -10.9549  -9.8895  -9.3178  -7.0449  -6.8144
    -3.5057  -3.2226  -2.4016  -1.2349   0.3867   1.2648   1.3468   1.8214

          k = 0.1111 0.3208 0.0000 (  9026 PWs)   bands (ev):

   -15.8313 -13.8317 -12.3708 -10.6576  -9.6965  -8.8376  -6.7392  -6.4831
    -4.3379  -3.8900  -3.3582  -1.7913   0.3884   2.0688   2.1220   2.8634

          k = 0.1111 0.4491 0.0000 (  9053 PWs)   bands (ev):

   -15.5450 -14.3592 -12.5078 -10.6577  -9.1280  -8.3631  -6.9316  -6.0202
    -4.9300  -4.2464  -4.1451  -2.1040   0.2506   2.8390   3.2185   3.4183

          k = 0.1111 0.5774 0.0000 (  9054 PWs)   bands (ev):

   -15.3448 -14.6429 -12.5567 -10.6823  -8.7529  -8.1430  -7.2348  -5.6665
    -5.1919  -4.7480  -4.1043  -2.2052   0.1942   3.2660   3.3367   4.0767

          k = 0.2222 0.3849 0.0000 (  9035 PWs)   bands (ev):

   -15.5805 -14.2690 -12.6496 -10.1669  -9.6414  -8.3444  -6.9981  -6.0840
    -4.5228  -4.3179  -4.0180  -2.4772   1.1905   2.1379   2.4570   3.3255

          k = 0.2222 0.5132 0.0000 (  9041 PWs)   bands (ev):

   -15.2842 -14.6674 -12.8144 -10.0235  -9.1990  -8.0135  -7.5938  -5.5954
    -4.6867  -4.6650  -4.2861  -2.8115   1.3841   2.7996   2.9877   3.3801

          k = 0.3333 0.5774 0.0000 (  9021 PWs)   bands (ev):

   -14.9807 -14.9806 -12.9385  -9.4350  -9.4350  -8.0112  -7.8868  -5.1146
    -5.1146  -4.4334  -4.4334  -3.0861   2.4867   2.4867   2.9603   2.9603

     the Fermi energy is    -0.5872 ev

!    total energy              =     -49.98681831 Ry
     estimated scf accuracy    <       0.00000077 Ry
     smearing contrib. (-TS)   =       0.00018350 Ry
     internal energy E=F+TS    =     -49.98700182 Ry

     The total energy is F=E-TS. E is the sum of the following terms:
     one-electron contribution =    -179.55772238 Ry
     hartree contribution      =      94.37246379 Ry
     xc contribution           =     -23.24735349 Ry
     ewald contribution        =      58.44561026 Ry

     convergence has been achieved in   6 iterations

     Writing all to output data dir ../../outdir/borophene.save/

     init_run     :      5.95s CPU      4.49s WALL (       1 calls)
     electrons    :     79.46s CPU     39.52s WALL (       1 calls)

     Called by init_run:
     wfcinit      :      5.18s CPU      3.77s WALL (       1 calls)
     potinit      :      0.10s CPU      0.08s WALL (       1 calls)
     hinit0       :      0.57s CPU      0.53s WALL (       1 calls)

     Called by electrons:
     c_bands      :     63.55s CPU     26.22s WALL (       6 calls)
     sum_band     :     14.90s CPU     12.37s WALL (       6 calls)
     v_of_rho     :      0.71s CPU      0.53s WALL (       7 calls)
     newd         :      0.27s CPU      0.37s WALL (       7 calls)
     mix_rho      :      0.13s CPU      0.13s WALL (       6 calls)

     Called by c_bands:
     init_us_2    :      0.52s CPU      0.51s WALL (     156 calls)
     init_us_2:cp :      0.51s CPU      0.51s WALL (     156 calls)
     cegterg      :     62.61s CPU     25.40s WALL (      72 calls)

     Called by *egterg:
     cdiaghg      :      0.17s CPU      0.12s WALL (     325 calls)
     h_psi        :     62.73s CPU     25.49s WALL (     337 calls)
     s_psi        :      1.26s CPU      0.79s WALL (     337 calls)
     g_psi        :      0.17s CPU      0.17s WALL (     253 calls)

     Called by h_psi:
     h_psi:calbec :      1.77s CPU      1.41s WALL (     337 calls)
     vloc_psi     :     59.67s CPU     23.16s WALL (     337 calls)
     add_vuspsi   :      1.07s CPU      0.70s WALL (     337 calls)

     General routines
     calbec       :      2.27s CPU      1.82s WALL (     409 calls)
     fft          :      0.74s CPU      0.69s WALL (      77 calls)
     ffts         :      0.09s CPU      0.08s WALL (       6 calls)
     fftw         :     64.98s CPU     53.49s WALL (    8390 calls)

     Parallel routines

     PWSCF        :   1m25.50s CPU     44.18s WALL


   This run was terminated on:  10:54: 7   3Jul2025            

=------------------------------------------------------------------------------=
   JOB DONE.
=------------------------------------------------------------------------------=
