
     Program PWSCF v.7.2 starts on 30Jul2025 at 20:39: 2 

     This program is part of the open-source Quantum ESPRESSO suite
     for quantum simulation of materials; please cite
         "P. Giannozzi et al., J. Phys.:Condens. Matter 21 395502 (2009);
         "P. Giannozzi et al., J. Phys.:Condens. Matter 29 465901 (2017);
         "P. Giannozzi et al., J. Chem. Phys. 152 154105 (2020);
          URL http://www.quantum-espresso.org", 
     in publications or presentations arising from this work. More details at
     http://www.quantum-espresso.org/quote

     Parallel version (MPI & OpenMP), running on       2 processor cores
     Number of MPI processes:                 1
     Threads/MPI process:                     2

     MPI processes distributed on     1 nodes
     429 MiB available memory on the printing compute node when the environment starts

     Reading input from alpha.nscf.in

     Current dimensions of program PWSCF are:
     Max number of different atomic species (ntypx) = 10
     Max number of k-points (npk) =  40000
     Max angular momentum in pseudopotentials (lmaxx) =  4

     Atomic positions and unit cell read from directory:
     ../../outdir/borophene.save/
     Atomic positions from file used, from input discarded

     file B.pbesol-n-rrkjus_psl.1.0.0.UPF: wavefunction(s)  2S renormalized

     Subspace diagonalization in iterative solution of the eigenvalue problem:
     a serial algorithm will be used


     G-vector sticks info
     --------------------
     sticks:   dense  smooth     PW     G-vecs:    dense   smooth      PW
     Sum        1357    1357    379               149567   149567   22137

     Using Slab Decomposition



     bravais-lattice index     =            4
     lattice parameter (alat)  =       9.0360  a.u.
     unit-cell volume          =    2382.6030 (a.u.)^3
     number of atoms/cell      =           14
     number of atomic types    =            2
     number of electrons       =       114.00
     number of Kohn-Sham states=           68
     kinetic-energy cutoff     =      60.0000  Ry
     charge density cutoff     =     240.0000  Ry
     Exchange-correlation= SLA  PW   PSX  PSC
                           (   1   4  10   8   0   0   0)

     celldm(1)=   9.036000  celldm(2)=   0.000000  celldm(3)=   3.729000
     celldm(4)=   0.000000  celldm(5)=   0.000000  celldm(6)=   0.000000

     crystal axes: (cart. coord. in units of alat)
               a(1) = (   1.000000   0.000000   0.000000 )  
               a(2) = (  -0.500000   0.866025   0.000000 )  
               a(3) = (   0.000000   0.000000   3.729000 )  

     reciprocal axes: (cart. coord. in units 2 pi/alat)
               b(1) = (  1.000000  0.577350 -0.000000 )  
               b(2) = (  0.000000  1.154701  0.000000 )  
               b(3) = (  0.000000 -0.000000  0.268168 )  


     PseudoPot. # 1 for B  read from file:
     ../../pseudo/B.pbesol-n-rrkjus_psl.1.0.0.UPF
     MD5 check sum: a3839a09b1a4e02f2a06a66adc9253fc
     Pseudo is Ultrasoft + core correction, Zval =  3.0
     Generated using &quot;atomic&quot; code by A. Dal Corso  v.6.3MaX
     Using radial grid of 1059 points,  4 beta functions with: 
                l(1) =   0
                l(2) =   0
                l(3) =   1
                l(4) =   1
     Q(r) pseudized with 0 coefficients 


     PseudoPot. # 2 for Re read from file:
     ../../pseudo/re_pbesol_v1.2.uspp.F.UPF
     MD5 check sum: aaf9138663fa2d46e1797bae542d0e3d
     Pseudo is Ultrasoft + core correction, Zval = 15.0
     Generated by new atomic code, or converted to UPF format
     Using radial grid of  981 points,  8 beta functions with: 
                l(1) =   0
                l(2) =   0
                l(3) =   1
                l(4) =   1
                l(5) =   2
                l(6) =   2
                l(7) =   3
                l(8) =   3
     Q(r) pseudized with  8 coefficients,  rinner =    1.150   1.150   1.150
                                                       1.150   1.150   1.150
                                                       1.150

     atomic species   valence    mass     pseudopotential
        B              3.00    10.81100     B ( 1.00)
        Re            15.00   186.20700     Re( 1.00)

      6 Sym. Ops. (no inversion) found



   Cartesian axes

     site n.     atom                  positions (alat units)
         1           Re  tau(   1) = (   0.3333330   0.0000000   0.0000000  )
         2           Re  tau(   2) = (  -0.1666665   0.2886748   0.0000000  )
         3           Re  tau(   3) = (   0.3333335   0.5773506   0.0000000  )
         4           Re  tau(   4) = (   0.0000000   0.0000000   0.4598000  )
         5           Re  tau(   5) = (   0.5000005   0.2886748   0.4321867  )
         6           Re  tau(   6) = (  -0.0000005   0.5773506   0.4321867  )
         7           B   tau(   7) = (   0.3335585   0.0000000   0.8206364  )
         8           B   tau(   8) = (   0.6788599   0.0000000   0.8910164  )
         9           B   tau(   9) = (  -0.1667792   0.2888701   0.8206364  )
        10           B   tau(  10) = (   0.1605701   0.2781155   0.8910164  )
        11           B   tau(  11) = (   0.5000005   0.2886748   0.9506643  )
        12           B   tau(  12) = (  -0.3394299   0.5879099   0.8910164  )
        13           B   tau(  13) = (  -0.0000005   0.5773506   0.9506643  )
        14           B   tau(  14) = (   0.3332208   0.5771553   0.8206364  )

     number of k points=    30 (tetrahedron method)
                       cart. coord. in units 2pi/alat
        k(    1) = (   0.0000000   0.0000000   0.0000000), wk =   0.0078125
        k(    2) = (   0.0000000   0.0721688   0.0000000), wk =   0.0468750
        k(    3) = (   0.0000000   0.1443376   0.0000000), wk =   0.0468750
        k(    4) = (   0.0000000   0.2165064   0.0000000), wk =   0.0468750
        k(    5) = (   0.0000000   0.2886751   0.0000000), wk =   0.0468750
        k(    6) = (   0.0000000   0.3608439   0.0000000), wk =   0.0468750
        k(    7) = (   0.0000000   0.4330127   0.0000000), wk =   0.0468750
        k(    8) = (   0.0000000   0.5051815   0.0000000), wk =   0.0468750
        k(    9) = (   0.0000000  -0.5773503   0.0000000), wk =   0.0234375
        k(   10) = (   0.0625000   0.1082532   0.0000000), wk =   0.0468750
        k(   11) = (   0.0625000   0.1804220   0.0000000), wk =   0.0937500
        k(   12) = (   0.0625000   0.2525907   0.0000000), wk =   0.0937500
        k(   13) = (   0.0625000   0.3247595   0.0000000), wk =   0.0937500
        k(   14) = (   0.0625000   0.3969283   0.0000000), wk =   0.0937500
        k(   15) = (   0.0625000   0.4690971   0.0000000), wk =   0.0937500
        k(   16) = (   0.0625000   0.5412659   0.0000000), wk =   0.0937500
        k(   17) = (   0.1250000   0.2165064   0.0000000), wk =   0.0468750
        k(   18) = (   0.1250000   0.2886751   0.0000000), wk =   0.0937500
        k(   19) = (   0.1250000   0.3608439   0.0000000), wk =   0.0937500
        k(   20) = (   0.1250000   0.4330127   0.0000000), wk =   0.0937500
        k(   21) = (   0.1250000   0.5051815   0.0000000), wk =   0.0937500
        k(   22) = (   0.1250000   0.5773503   0.0000000), wk =   0.0468750
        k(   23) = (   0.1875000   0.3247595   0.0000000), wk =   0.0468750
        k(   24) = (   0.1875000   0.3969283   0.0000000), wk =   0.0937500
        k(   25) = (   0.1875000   0.4690971   0.0000000), wk =   0.0937500
        k(   26) = (   0.1875000   0.5412659   0.0000000), wk =   0.0937500
        k(   27) = (   0.2500000   0.4330127   0.0000000), wk =   0.0468750
        k(   28) = (   0.2500000   0.5051815   0.0000000), wk =   0.0937500
        k(   29) = (   0.2500000   0.5773503   0.0000000), wk =   0.0468750
        k(   30) = (   0.3125000   0.5412659   0.0000000), wk =   0.0468750

     Dense  grid:   149567 G-vectors     FFT dimensions: (  45,  45, 180)

     Estimated max dynamical RAM per process >       1.40 GB

     Check: negative core charge=   -0.000001

     The potential is recalculated from file :
     ../../outdir/borophene.save/charge-density


     negative rho (up, down):  8.017E-01 0.000E+00
     Starting wfcs are  110 randomized atomic wfcs

     Band Structure Calculation
     Davidson diagonalization with overlap

     ethr =  8.77E-10,  avg # of iterations = 43.2

     total cpu time spent up to now is     1149.1 secs

     End of band structure calculation

          k = 0.0000 0.0000 0.0000 ( 18635 PWs)   bands (ev):

   -75.3784 -75.3053 -75.2308 -74.8646 -74.7870 -74.7870 -37.5912 -37.5028
   -37.5027 -37.4170 -37.4169 -37.3813 -37.1994 -36.7881 -36.7881 -36.7541
   -36.7541 -36.6798 -36.6651 -36.5862 -36.5862 -36.5806 -36.1721 -36.1721
   -12.0235  -7.3139  -6.8841  -6.8840  -5.1504  -5.1504  -5.1271  -3.7675
    -2.3814  -1.2755  -0.0083  -0.0083   0.3428   0.3428   0.9890   0.9891
     1.0771   1.4601   1.4602   1.5567   2.4026   2.4026   3.0960   3.3608
     3.3608   3.3620   3.3635   3.5093   3.5093   4.3071   4.3071   4.3617
     4.6292   5.0491   5.0491   5.7759   5.7759   6.4864   7.0021   7.0363
     7.0364   7.2780   7.2780   7.6664

          k = 0.0000 0.0722 0.0000 ( 18669 PWs)   bands (ev):

   -75.3775 -75.3058 -75.2311 -74.8638 -74.7875 -74.7874 -37.5888 -37.5308
   -37.5264 -37.3905 -37.3848 -37.3765 -37.2022 -36.7980 -36.7931 -36.7691
   -36.7596 -36.6627 -36.6505 -36.5856 -36.5846 -36.5769 -36.1833 -36.1747
   -12.0020  -7.6146  -6.9207  -6.6156  -5.3456  -5.0779  -4.9367  -3.6290
    -2.3357  -1.2421  -0.1726  -0.1526   0.4294   0.4882   0.8518   0.9070
     1.0657   1.4468   1.5152   1.5649   2.3151   2.4089   3.0542   3.2319
     3.2837   3.4188   3.4304   3.5340   3.5734   4.1324   4.1681   4.2898
     4.5879   5.1305   5.1944   5.7342   5.8244   6.5204   6.8607   7.0254
     7.1429   7.3094   7.3718   7.7049

          k = 0.0000 0.1443 0.0000 ( 18641 PWs)   bands (ev):

   -75.3750 -75.3073 -75.2322 -74.8612 -74.7890 -74.7885 -37.5823 -37.5770
   -37.5563 -37.3948 -37.3305 -37.3150 -37.2087 -36.8324 -36.8074 -36.7916
   -36.7707 -36.6295 -36.6143 -36.5835 -36.5780 -36.5682 -36.2158 -36.1826
   -11.9379  -8.0639  -7.0138  -6.3324  -5.4366  -4.8781  -4.7314  -3.2799
    -2.2027  -1.1440  -0.4613  -0.3845   0.4183   0.5449   0.7049   0.7721
     1.0282   1.4006   1.5480   1.6013   2.0995   2.3705   2.9272   3.1348
     3.2794   3.2894   3.4011   3.5327   3.7724   3.9321   3.9941   4.1463
     4.4946   5.1868   5.4308   5.6450   5.9000   6.5356   6.7524   7.0149
     7.2676   7.4412   7.6281   7.8153

          k = 0.0000 0.2165 0.0000 ( 18647 PWs)   bands (ev):

   -75.3710 -75.3098 -75.2338 -74.8570 -74.7917 -74.7900 -37.6223 -37.5775
   -37.5652 -37.4066 -37.2724 -37.2518 -37.2082 -36.8936 -36.8282 -36.8026
   -36.7821 -36.6017 -36.5882 -36.5730 -36.5548 -36.5490 -36.2664 -36.1959
   -11.8324  -8.5202  -7.1308  -6.3220  -5.2162  -4.5871  -4.4846  -2.8296
    -1.9959  -0.9975  -0.7664  -0.6249   0.1224   0.3078   0.6297   0.7940
     0.9400   1.3416   1.4566   1.6068   1.9202   2.2235   2.8268   2.9866
     3.1552   3.2896   3.3695   3.4123   3.7934   3.8515   4.0489   4.2596
     4.3644   5.1186   5.5694   5.6498   5.9390   6.4697   6.8014   7.0726
     7.3523   7.6014   7.8631   7.9966

          k = 0.0000 0.2887 0.0000 ( 18683 PWs)   bands (ev):

   -75.3658 -75.3131 -75.2357 -74.8515 -74.7957 -74.7916 -37.6617 -37.5738
   -37.5519 -37.4197 -37.2431 -37.2093 -37.1594 -36.9704 -36.8485 -36.8178
   -36.7838 -36.5890 -36.5837 -36.5664 -36.5187 -36.4985 -36.3304 -36.2145
   -11.6877  -8.9633  -7.2465  -6.4672  -4.7910  -4.2430  -4.1754  -2.3633
    -1.7404  -1.1093  -0.9459  -0.7072  -0.2614   0.1189   0.5009   0.5107
     0.9001   1.1844   1.2907   1.4562   1.8509   2.2617   2.5922   2.9589
     3.1016   3.1731   3.2127   3.4660   3.6759   3.9023   4.1804   4.2756
     4.6020   4.9896   5.5480   5.7934   5.9801   6.4852   6.8794   7.2275
     7.4324   7.7355   7.8677   8.2173

          k = 0.0000 0.3608 0.0000 ( 18709 PWs)   bands (ev):

   -75.3599 -75.3171 -75.2378 -74.8448 -74.8008 -74.7932 -37.6938 -37.5541
   -37.5344 -37.4317 -37.2494 -37.1516 -37.1033 -37.0497 -36.8677 -36.8418
   -36.7709 -36.5892 -36.5749 -36.5670 -36.4749 -36.4485 -36.4002 -36.2386
   -11.5081  -9.3809  -7.3460  -6.6215  -4.3018  -3.8880  -3.7931  -1.9599
    -1.5245  -1.3831  -1.2203  -0.6322  -0.4538  -0.0617   0.1461   0.3365
     0.7260   0.9363   1.1796   1.3625   1.7547   2.3277   2.4844   2.8450
     2.9636   3.0923   3.1664   3.4817   3.6615   3.9801   4.1964   4.5217
     4.6726   5.1057   5.5668   5.8943   6.0705   6.5807   6.9552   7.3742
     7.6308   7.8285   7.8434   8.2970

          k = 0.0000 0.4330 0.0000 ( 18712 PWs)   bands (ev):

   -75.3537 -75.3215 -75.2396 -74.8374 -74.8069 -74.7945 -37.7174 -37.5247
   -37.5129 -37.4385 -37.2606 -37.1466 -37.0942 -37.0395 -36.8918 -36.8648
   -36.7450 -36.5918 -36.5805 -36.5627 -36.4687 -36.4280 -36.4066 -36.2679
   -11.3033  -9.7588  -7.4211  -6.7427  -3.7922  -3.5374  -3.3744  -1.8357
    -1.7120  -1.5176  -1.1938  -0.8885  -0.2755  -0.2589  -0.1789   0.1918
     0.6394   0.7684   1.1273   1.3126   1.5418   2.2723   2.4627   2.6640
     2.7889   3.1154   3.2556   3.4303   3.7677   3.9235   4.3922   4.4949
     4.8535   5.3596   5.6983   5.9062   6.3349   6.6241   7.0801   7.4428
     7.7490   7.8600   8.0254   8.2250

          k = 0.0000 0.5052 0.0000 ( 18732 PWs)   bands (ev):

   -75.3482 -75.3257 -75.2409 -74.8295 -74.8140 -74.7954 -37.7318 -37.5051
   -37.4908 -37.4241 -37.2867 -37.2066 -37.0399 -37.0073 -36.9282 -36.8767
   -36.7070 -36.6115 -36.5935 -36.5533 -36.5136 -36.3843 -36.3798 -36.3022
   -11.1021 -10.0650  -7.4676  -6.8184  -3.2842  -3.2374  -2.9846  -2.2495
    -1.8242  -1.6464  -1.1082  -0.9491  -0.4790  -0.4451  -0.1961   0.2802
     0.6236   0.8079   1.0528   1.2173   1.3502   2.2023   2.3449   2.5608
     2.7082   3.1322   3.3165   3.4395   3.8127   4.0753   4.2616   4.4457
     5.2691   5.5477   5.7617   5.9602   6.5301   6.8004   7.2399   7.4483
     7.6726   7.8432   8.0108   8.2128

          k = 0.0000-0.5774 0.0000 ( 18712 PWs)   bands (ev):

   -75.3457 -75.3278 -75.2413 -74.8221 -74.8212 -74.7957 -37.7367 -37.4945
   -37.4904 -37.3954 -37.3198 -37.2236 -37.0046 -36.9953 -36.9584 -36.8802
   -36.6619 -36.6566 -36.5948 -36.5463 -36.5302 -36.3718 -36.3427 -36.3391
   -10.9995 -10.2028  -7.4833  -6.8440  -3.1065  -2.8901  -2.8002  -2.6092
    -1.9069  -1.7605  -1.1089  -0.9084  -0.5544  -0.5349  -0.2142   0.3627
     0.6660   0.8846   0.9942   1.1040   1.2905   2.1951   2.2613   2.5240
     2.6882   3.1810   3.2770   3.4338   3.9780   4.0590   4.1950   4.3962
     5.5473   5.6233   5.6982   6.0541   6.3972   7.2702   7.3661   7.4113
     7.5538   7.6276   7.7686   8.1586

          k = 0.0625 0.1083 0.0000 ( 18663 PWs)   bands (ev):

   -75.3759 -75.3068 -75.2318 -74.8620 -74.7883 -74.7883 -37.5843 -37.5588
   -37.5555 -37.3928 -37.3397 -37.3386 -37.2069 -36.8202 -36.8017 -36.7878
   -36.7678 -36.6364 -36.6272 -36.5839 -36.5808 -36.5709 -36.2052 -36.1799
   -11.9592  -7.9383  -7.0075  -6.3497  -5.4713  -4.9218  -4.7932  -3.3878
    -2.2464  -1.1763  -0.3675  -0.3350   0.4586   0.5922   0.7097   0.7655
     1.0506   1.4261   1.5588   1.5713   2.1458   2.4195   2.9351   3.1987
     3.1998   3.3754   3.4301   3.6419   3.6449   3.9004   4.0666   4.1911
     4.5199   5.1762   5.3778   5.6563   5.8938   6.5433   6.7725   6.9826
     7.2685   7.3984   7.5261   7.7772

          k = 0.0625 0.1804 0.0000 ( 18648 PWs)   bands (ev):

   -75.3726 -75.3088 -75.2331 -74.8587 -74.7903 -74.7897 -37.5994 -37.5806
   -37.5712 -37.4026 -37.2875 -37.2755 -37.2114 -36.8703 -36.8168 -36.8021
   -36.7797 -36.6059 -36.5953 -36.5778 -36.5663 -36.5594 -36.2472 -36.1901
   -11.8744  -8.3502  -7.1569  -6.1421  -5.4744  -4.6413  -4.5841  -2.9958
    -2.0768  -1.0515  -0.6495  -0.5498   0.2721   0.3655   0.6755   0.7650
     1.0116   1.3248   1.5292   1.6154   1.9280   2.3689   2.7265   3.1296
     3.1786   3.2971   3.3766   3.6255   3.6839   3.8781   4.0329   4.1414
     4.4082   5.1538   5.5546   5.6034   5.9469   6.4994   6.7833   6.9585
     7.3761   7.5633   7.7986   7.8914

          k = 0.0625 0.2526 0.0000 ( 18678 PWs)   bands (ev):

   -75.3680 -75.3117 -75.2349 -74.8538 -74.7936 -74.7914 -37.6386 -37.5854
   -37.5592 -37.4149 -37.2469 -37.2232 -37.1866 -36.9401 -36.8365 -36.8107
   -36.7896 -36.5908 -36.5852 -36.5681 -36.5326 -36.5213 -36.3050 -36.2055
   -11.7491  -8.7770  -7.3172  -6.1913  -5.1667  -4.3455  -4.2587  -2.5453
    -1.8464  -0.9848  -0.8960  -0.7317  -0.0851   0.1370   0.5479   0.6839
     0.9381   1.1797   1.3445   1.5446   1.8959   2.2677   2.5992   3.0209
     3.1367   3.2274   3.3130   3.5306   3.7410   3.7975   4.1913   4.2665
     4.3841   5.0433   5.5211   5.7848   5.9739   6.4671   6.8504   7.0405
     7.4412   7.7051   7.8870   8.0848

          k = 0.0625 0.3248 0.0000 ( 18679 PWs)   bands (ev):

   -75.3624 -75.3153 -75.2370 -74.8477 -74.7980 -74.7931 -37.6727 -37.5733
   -37.5430 -37.4273 -37.2471 -37.1696 -37.1263 -37.0202 -36.8559 -36.8286
   -36.7851 -36.5879 -36.5781 -36.5665 -36.4909 -36.4698 -36.3727 -36.2261
   -11.5865  -9.1942  -7.4616  -6.3243  -4.7166  -4.0351  -3.8549  -2.1166
    -1.5961  -1.2778  -1.1032  -0.5936  -0.4379  -0.0487   0.3070   0.4503
     0.7547   1.0425   1.2172   1.3499   1.8336   2.3232   2.5363   2.9058
     3.0499   3.1494   3.2426   3.5097   3.6929   3.9365   4.1212   4.4337
     4.6600   4.9710   5.5331   5.9051   6.0294   6.5300   6.9123   7.2231
     7.5311   7.7979   7.8725   8.2372

          k = 0.0625 0.3969 0.0000 ( 18703 PWs)   bands (ev):

   -75.3563 -75.3196 -75.2389 -74.8407 -74.8036 -74.7946 -37.6996 -37.5449
   -37.5252 -37.4375 -37.2557 -37.1197 -37.1110 -37.0579 -36.8764 -36.8522
   -36.7660 -36.5895 -36.5755 -36.5669 -36.4501 -36.4397 -36.4221 -36.2520
   -11.3927  -9.5855  -7.5769  -6.4444  -4.2217  -3.6939  -3.4314  -1.8213
    -1.6320  -1.4510  -1.2557  -0.7702  -0.3308  -0.2214  -0.0309   0.2235
     0.6454   0.8422   1.1350   1.2756   1.6466   2.3633   2.5088   2.7689
     2.9133   3.1239   3.2511   3.4689   3.7430   3.9422   4.2499   4.5876
     4.7253   5.2029   5.6015   5.9717   6.1781   6.6155   6.9979   7.3863
     7.7022   7.8236   7.9216   8.2381

          k = 0.0625 0.4691 0.0000 ( 18718 PWs)   bands (ev):

   -75.3503 -75.3240 -75.2405 -74.8331 -74.8102 -74.7957 -37.7180 -37.5133
   -37.5036 -37.4386 -37.2739 -37.1870 -37.0593 -37.0194 -36.9063 -36.8693
   -36.7342 -36.5977 -36.5909 -36.5586 -36.4989 -36.4010 -36.3895 -36.2829
   -11.1835  -9.9292  -7.6564  -6.5295  -3.7182  -3.3492  -3.0276  -2.0658
    -1.8060  -1.5537  -1.1295  -0.9390  -0.4174  -0.3243  -0.1819   0.1732
     0.6177   0.7414   1.0908   1.2311   1.4310   2.3228   2.3999   2.6597
     2.8210   3.0900   3.3419   3.4644   3.7925   3.9859   4.3693   4.4348
     5.0995   5.4261   5.7620   5.9320   6.5325   6.6095   7.1389   7.4467
     7.7160   7.8796   8.0394   8.2110

          k = 0.0625 0.5413 0.0000 ( 18710 PWs)   bands (ev):

   -75.3460 -75.3274 -75.2414 -74.8252 -74.8174 -74.7963 -37.7274 -37.4978
   -37.4896 -37.4113 -37.3163 -37.2214 -37.0117 -36.9955 -36.9440 -36.8767
   -36.6909 -36.6404 -36.5933 -36.5498 -36.5275 -36.3723 -36.3580 -36.3184
   -11.0122 -10.1686  -7.6969  -6.5731  -3.3026  -3.0219  -2.7600  -2.4820
    -1.9814  -1.6587  -1.0956  -0.9271  -0.5549  -0.4752  -0.1879   0.2702
     0.6433   0.7618   1.0582   1.1610   1.2978   2.2528   2.3046   2.6156
     2.7626   3.1490   3.2551   3.5122   3.9172   4.1211   4.2035   4.3977
     5.4908   5.5954   5.7381   6.0098   6.4261   7.0694   7.2975   7.4121
     7.6519   7.7516   7.8294   8.1378

          k = 0.1250 0.2165 0.0000 ( 18653 PWs)   bands (ev):

   -75.3687 -75.3112 -75.2347 -74.8546 -74.7921 -74.7920 -37.6146 -37.6047
   -37.5622 -37.4134 -37.2501 -37.2234 -37.1983 -36.9303 -36.8259 -36.8139
   -36.7924 -36.5905 -36.5854 -36.5691 -36.5340 -36.5331 -36.2968 -36.2018
   -11.7697  -8.6991  -7.3900  -5.8543  -5.5306  -4.3782  -4.2578  -2.6128
    -1.8844  -0.9373  -0.9039  -0.7148   0.0466   0.0647   0.5712   0.7432
     1.0051   1.0858   1.3441   1.5913   1.9189   2.4134   2.4417   3.0909
     3.1280   3.2575   3.4727   3.5038   3.6679   3.9663   4.0853   4.2446
     4.2926   5.0668   5.4926   5.7996   5.9863   6.4787   6.8686   6.8745
     7.4703   7.7135   7.9247   7.9672

          k = 0.1250 0.2887 0.0000 ( 18695 PWs)   bands (ev):

   -75.3637 -75.3144 -75.2365 -74.8492 -74.7957 -74.7939 -37.6414 -37.6034
   -37.5478 -37.4250 -37.2473 -37.1683 -37.1479 -37.0048 -36.8415 -36.8205
   -36.8022 -36.5869 -36.5791 -36.5668 -36.4942 -36.4862 -36.3595 -36.2182
   -11.6262  -9.0703  -7.6147  -5.8369  -5.2487  -4.1095  -3.8331  -2.2105
    -1.6583  -1.1938  -1.0467  -0.6379  -0.2913  -0.1499   0.3973   0.5873
     0.7515   0.9717   1.1836   1.4544   1.8936   2.3107   2.5562   2.9430
     3.0954   3.2445   3.3814   3.5712   3.7004   3.9422   4.1683   4.3295
     4.4547   4.9607   5.4911   5.9449   6.0739   6.5048   6.8411   6.9993
     7.5279   7.8049   7.9434   8.0807

          k = 0.1250 0.3608 0.0000 ( 18699 PWs)   bands (ev):

   -75.3580 -75.3182 -75.2385 -74.8427 -74.8004 -74.7957 -37.6677 -37.5811
   -37.5316 -37.4358 -37.2539 -37.1190 -37.1047 -37.0693 -36.8607 -36.8366
   -36.7932 -36.5865 -36.5745 -36.5700 -36.4530 -36.4402 -36.4245 -36.2393
   -11.4478  -9.4412  -7.7975  -5.9394  -4.7826  -3.7981  -3.4000  -1.8951
    -1.5384  -1.4557  -1.2426  -0.6335  -0.4067  -0.3022   0.1298   0.2839
     0.5929   0.8988   1.1197   1.2610   1.7035   2.3862   2.6601   2.8265
     3.0197   3.2635   3.3004   3.5299   3.8383   3.9584   4.0836   4.5620
     4.6845   4.9750   5.5480   6.0641   6.1580   6.5827   6.8986   7.1601
     7.6089   7.8350   7.9360   8.1631

          k = 0.1250 0.4330 0.0000 ( 18691 PWs)   bands (ev):

   -75.3520 -75.3225 -75.2403 -74.8355 -74.8063 -74.7971 -37.6879 -37.5432
   -37.5153 -37.4436 -37.2686 -37.1724 -37.0656 -37.0324 -36.8851 -36.8542
   -36.7691 -36.5925 -36.5865 -36.5642 -36.4884 -36.4093 -36.3983 -36.2652
   -11.2435  -9.7908  -7.9295  -6.0270  -4.2750  -3.4679  -2.9886  -1.9868
    -1.7741  -1.5106  -1.1715  -0.8548  -0.4561  -0.2047  -0.1536   0.1098
     0.5473   0.7640   1.0866   1.1728   1.5038   2.3846   2.6544   2.7780
     2.9475   3.1673   3.4227   3.4830   3.8144   3.9885   4.2443   4.5357
     4.9709   5.2163   5.6552   6.1103   6.3436   6.6329   7.0047   7.3287
     7.7183   7.8462   7.9897   8.1187

          k = 0.1250 0.5052 0.0000 ( 18729 PWs)   bands (ev):

   -75.3467 -75.3266 -75.2415 -74.8279 -74.8130 -74.7980 -37.7005 -37.5040
   -37.5003 -37.4392 -37.3105 -37.2170 -37.0187 -36.9982 -36.9178 -36.8654
   -36.7323 -36.6322 -36.5893 -36.5562 -36.5234 -36.3736 -36.3679 -36.2957
   -11.0401 -10.0843  -8.0088  -6.0826  -3.7714  -3.1683  -2.6702  -2.3886
    -2.0093  -1.5505  -1.0870  -0.9460  -0.5785  -0.3406  -0.1266   0.1054
     0.5680   0.6729   1.0758   1.1633   1.3382   2.3552   2.5275   2.7737
     2.9418   3.0885   3.3539   3.5771   3.8750   4.0706   4.3192   4.4172
     5.3257   5.4660   5.8105   6.0052   6.5141   6.7925   7.1500   7.3778
     7.7275   7.8401   7.9849   8.1466

          k = 0.1250 0.5774 0.0000 ( 18714 PWs)   bands (ev):

   -75.3442 -75.3287 -75.2420 -74.8207 -74.8199 -74.7983 -37.7048 -37.4940
   -37.4910 -37.4140 -37.3549 -37.2265 -36.9951 -36.9772 -36.9454 -36.8692
   -36.6869 -36.6821 -36.5902 -36.5507 -36.5353 -36.3643 -36.3321 -36.3284
   -10.9336 -10.2214  -8.0352  -6.1015  -3.4640  -3.0253  -2.7604  -2.4254
    -2.1449  -1.6045  -1.0833  -0.9378  -0.6321  -0.4055  -0.1206   0.1312
     0.6228   0.6244   1.0715   1.1881   1.2516   2.3863   2.4121   2.7894
     2.9066   3.1307   3.2589   3.6029   3.9648   4.1915   4.2109   4.3786
     5.4550   5.7073   5.8151   6.0416   6.3006   7.2230   7.2732   7.4129
     7.4697   7.7268   7.8135   8.1178

          k = 0.1875 0.3248 0.0000 ( 18717 PWs)   bands (ev):

   -75.3586 -75.3178 -75.2384 -74.8434 -74.7978 -74.7976 -37.6333 -37.6177
   -37.5335 -37.4349 -37.2535 -37.1121 -37.1112 -37.0710 -36.8514 -36.8224
   -36.8154 -36.5851 -36.5744 -36.5714 -36.4498 -36.4490 -36.4210 -36.2345
   -11.4664  -9.3812  -7.8885  -5.4484  -5.2916  -3.8340  -3.3844  -1.9254
    -1.5219  -1.4530  -1.2247  -0.5265  -0.4546  -0.3853   0.2282   0.2947
     0.5678   0.8581   1.0981   1.3282   1.7083   2.3958   2.7004   2.8471
     3.0906   3.2694   3.3949   3.5618   3.8297   4.0134   4.2091   4.3171
     4.6735   4.9047   5.5295   6.0436   6.2988   6.5761   6.7469   7.0450
     7.5958   7.8552   8.0266   8.0310

          k = 0.1875 0.3969 0.0000 ( 18703 PWs)   bands (ev):

   -75.3529 -75.3217 -75.2402 -74.8368 -74.8026 -74.7994 -37.6457 -37.5916
   -37.5184 -37.4436 -37.2663 -37.1654 -37.0630 -37.0437 -36.8705 -36.8331
   -36.8044 -36.5914 -36.5818 -36.5692 -36.4834 -36.4105 -36.4053 -36.2546
   -11.2750  -9.6963  -8.1003  -5.4688  -4.8615  -3.5337  -2.9609  -1.9832
    -1.7191  -1.5097  -1.1910  -0.7312  -0.5810  -0.2364  -0.0044   0.0878
     0.4635   0.7667   1.0737   1.1912   1.5191   2.4235   2.7818   2.8486
     3.1040   3.2788   3.3898   3.5707   3.9211   4.0503   4.1694   4.4795
     4.8905   4.9934   5.6304   6.2275   6.3855   6.6403   6.7991   7.0936
     7.6950   7.8514   7.9956   8.0799

          k = 0.1875 0.4691 0.0000 ( 18719 PWs)   bands (ev):

   -75.3473 -75.3258 -75.2417 -74.8297 -74.8085 -74.8007 -37.6586 -37.5460
   -37.5046 -37.4492 -37.3065 -37.2132 -37.0204 -37.0021 -36.8961 -36.8452
   -36.7763 -36.6299 -36.5840 -36.5626 -36.5211 -36.3755 -36.3721 -36.2788
   -11.0651  -9.9948  -8.2411  -5.5300  -4.3386  -3.2591  -2.6058  -2.3786
    -1.9685  -1.4937  -1.1054  -0.9087  -0.6501  -0.2170  -0.0923   0.0084
     0.4577   0.6736   1.0714   1.1231   1.3694   2.4361   2.7734   2.8866
     3.0694   3.1991   3.4881   3.5835   3.8841   4.1183   4.2613   4.5129
     5.0391   5.3458   5.7685   6.2663   6.5708   6.6169   6.9476   7.1725
     7.7937   7.8355   8.0098   8.0367

          k = 0.1875 0.5413 0.0000 ( 18720 PWs)   bands (ev):

   -75.3431 -75.3293 -75.2425 -74.8224 -74.8152 -74.8014 -37.6655 -37.5029
   -37.4953 -37.4413 -37.3712 -37.2264 -36.9899 -36.9701 -36.9259 -36.8523
   -36.7356 -36.6840 -36.5851 -36.5558 -36.5378 -36.3575 -36.3387 -36.3069
   -10.8842 -10.2221  -8.3108  -5.5629  -3.8441  -3.2193  -2.6792  -2.3347
    -2.1790  -1.5470  -1.0797  -0.9766  -0.6887  -0.3229  -0.0437  -0.0137
     0.5180   0.6064   1.0574   1.1570   1.2475   2.5227   2.6635   2.9162
     3.0404   3.1652   3.4353   3.6347   3.9162   4.2112   4.3035   4.4555
     5.1677   5.7639   5.9294   6.1028   6.3624   7.0256   7.1162   7.2009
     7.6701   7.8227   7.8767   8.0485

          k = 0.2500 0.4330 0.0000 ( 18729 PWs)   bands (ev):

   -75.3476 -75.3255 -75.2417 -74.8303 -74.8045 -74.8041 -37.6152 -37.5928
   -37.5056 -37.4501 -37.3050 -37.2118 -37.0199 -37.0043 -36.8873 -36.8161
   -36.8148 -36.6296 -36.5807 -36.5661 -36.5204 -36.3763 -36.3731 -36.2727
   -11.0747  -9.9553  -8.3282  -5.0148  -4.8625  -3.2906  -2.5812  -2.3857
    -1.9427  -1.4787  -1.1153  -0.8609  -0.7134  -0.1597  -0.1042  -0.0046
     0.4104   0.6700   1.0673   1.1272   1.3688   2.4775   2.7859   2.9506
     3.2379   3.2756   3.3922   3.6428   3.9748   4.1648   4.2760   4.4250
     4.9241   5.2658   5.7798   6.4836   6.5439   6.6786   6.6947   7.0059
     7.8135   7.8240   7.9954   8.0447

          k = 0.2500 0.5052 0.0000 ( 18737 PWs)   bands (ev):

   -75.3426 -75.3295 -75.2428 -74.8234 -74.8101 -74.8054 -37.6141 -37.5489
   -37.4966 -37.4536 -37.3734 -37.2252 -36.9880 -36.9692 -36.9091 -36.8242
   -36.7844 -36.6854 -36.5802 -36.5609 -36.5386 -36.3517 -36.3447 -36.2938
   -10.8646 -10.2016  -8.4673  -4.9959  -4.3848  -3.2934  -2.6479  -2.3109
    -2.1403  -1.5174  -1.0756  -0.9984  -0.7358  -0.2448  -0.1540   0.0224
     0.4698   0.6041   1.0690   1.1045   1.2491   2.6121   2.7904   2.9619
     3.1838   3.2878   3.4968   3.7110   3.9646   4.2335   4.3203   4.4489
     4.9560   5.6617   5.9641   6.4010   6.5428   6.7951   6.8777   6.9335
     7.7817   7.8844   7.9372   8.0014

          k = 0.2500 0.5774 0.0000 ( 18733 PWs)   bands (ev):

   -75.3398 -75.3318 -75.2432 -74.8170 -74.8162 -74.8058 -37.6160 -37.5089
   -37.4987 -37.4475 -37.4235 -37.2275 -36.9747 -36.9470 -36.9281 -36.8277
   -36.7419 -36.7383 -36.5803 -36.5565 -36.5460 -36.3431 -36.3198 -36.3161
   -10.7362 -10.3424  -8.5138  -5.0081  -3.9916  -3.5885  -2.5997  -2.3037
    -2.1604  -1.5485  -1.0891  -1.0290  -0.7377  -0.2953  -0.1574   0.0212
     0.5306   0.5703   1.0580   1.1506   1.1626   2.7317   2.7807   2.9522
     3.0780   3.3072   3.6568   3.6572   3.9076   4.3011   4.3356   4.4459
     4.9761   6.0633   6.1043   6.1684   6.3035   6.8573   6.9023   7.3816
     7.4080   7.8568   7.8947   7.9750

          k = 0.3125 0.5413 0.0000 ( 18743 PWs)   bands (ev):

   -75.3381 -75.3333 -75.2435 -74.8171 -74.8112 -74.8107 -37.5703 -37.5398
   -37.5018 -37.4549 -37.4347 -37.2273 -36.9688 -36.9435 -36.9241 -36.7900
   -36.7899 -36.7423 -36.5779 -36.5571 -36.5490 -36.3321 -36.3279 -36.3104
   -10.6565 -10.4091  -8.5859  -4.5242  -4.3539  -3.7205  -2.5403  -2.3467
    -2.1066  -1.5535  -1.0721  -1.0719  -0.7540  -0.2589  -0.2305   0.0253
     0.5419   0.5690   1.0884   1.0973   1.1523   2.8066   2.8149   2.9606
     3.1780   3.2768   3.6926   3.7964   4.0107   4.1597   4.3786   4.3999
     4.9428   6.0379   6.2072   6.3974   6.4626   6.5702   6.6906   7.2636
     7.6795   7.6917   7.9381   7.9547

     the Fermi energy is     5.0575 ev
     (compare with:     5.1122 eV, computed in scf)

     Writing all to output data dir ../../outdir/borophene.save/

     init_run     :      6.26s CPU     37.54s WALL (       1 calls)
     electrons    :   1885.27s CPU   1111.25s WALL (       1 calls)

     Called by init_run:
     wfcinit      :      0.00s CPU      0.01s WALL (       1 calls)
     potinit      :      0.21s CPU      0.16s WALL (       1 calls)
     hinit0       :      1.70s CPU      1.53s WALL (       1 calls)

     Called by electrons:
     c_bands      :   1885.15s CPU   1111.12s WALL (       1 calls)
     v_of_rho     :      0.20s CPU      0.14s WALL (       1 calls)
     newd         :      4.24s CPU     35.72s WALL (       1 calls)

     Called by c_bands:
     init_us_2    :      0.79s CPU      0.82s WALL (      30 calls)
     init_us_2:cp :      0.79s CPU      0.82s WALL (      30 calls)
     cegterg      :   1766.62s CPU   1066.71s WALL (      77 calls)

     Called by *egterg:
     cdiaghg      :     11.11s CPU      9.40s WALL (    1327 calls)
     h_psi        :   1324.03s CPU    869.09s WALL (    1404 calls)
     s_psi        :    130.75s CPU     69.72s WALL (    1404 calls)
     g_psi        :      4.71s CPU      4.12s WALL (    1297 calls)

     Called by h_psi:
     h_psi:calbec :    136.52s CPU     49.44s WALL (    1404 calls)
     vloc_psi     :   1050.63s CPU    783.71s WALL (    1404 calls)
     add_vuspsi   :    132.64s CPU     31.93s WALL (    1404 calls)

     General routines
     calbec       :    136.50s CPU     49.43s WALL (    1404 calls)
     fft          :      0.95s CPU      0.83s WALL (      12 calls)
     fftw         :    843.04s CPU    560.51s WALL (   89480 calls)
     davcio       :      0.12s CPU      1.17s WALL (      60 calls)

     Parallel routines

     PWSCF        :  31m32.16s CPU  19m11.73s WALL


   This run was terminated on:  20:58:14  30Jul2025            

=------------------------------------------------------------------------------=
   JOB DONE.
=------------------------------------------------------------------------------=
