
     Program PROJWFC v.7.2 starts on 30Jul2025 at 21: 0:22 

     This program is part of the open-source Quantum ESPRESSO suite
     for quantum simulation of materials; please cite
         "P. Giannozzi et al., J. Phys.:Condens. Matter 21 395502 (2009);
         "P. Giannozzi et al., J. Phys.:Condens. Matter 29 465901 (2017);
         "P. Giannozzi et al., J. Chem. Phys. 152 154105 (2020);
          URL http://www.quantum-espresso.org", 
     in publications or presentations arising from this work. More details at
     http://www.quantum-espresso.org/quote

     Parallel version (MPI & OpenMP), running on       2 processor cores
     Number of MPI processes:                 1
     Threads/MPI process:                     2

     MPI processes distributed on     1 nodes
     983 MiB available memory on the printing compute node when the environment starts


     Reading xml data from directory:

     ../../outdir/borophene.save/
     file B.pbesol-n-rrkjus_psl.1.0.0.UPF: wavefunction(s)  2S renormalized

     IMPORTANT: XC functional enforced from input :
     Exchange-correlation= PBESOL
                           (   1   4  10   8   0   0   0)
     Any further DFT definition will be discarded
     Please, verify this is what you really want


     G-vector sticks info
     --------------------
     sticks:   dense  smooth     PW     G-vecs:    dense   smooth      PW
     Sum        1357    1357    379               149567   149567   22137

     Using Slab Decomposition


     Check: negative core charge=   -0.000001

     negative rho (up, down):  8.017E-01 0.000E+00

     Linear tetrahedron method (read from file) 
     [opt_tetra]  Linear tetrahedron method is used.

     Calling projwave .... 
     Subspace diagonalization in iterative solution of the eigenvalue problem:
     a serial algorithm will be used


  Problem Sizes 
  natomwfc =          110
  nbnd     =           68
  nkstot   =           30
  npwx     =        18743
  nkb      =          256


     Atomic states used for projection
     (read from pseudopotential files):

     state #   1: atom   1 (Re ), wfc  1 (l=0 m= 1)
     state #   2: atom   1 (Re ), wfc  2 (l=1 m= 1)
     state #   3: atom   1 (Re ), wfc  2 (l=1 m= 2)
     state #   4: atom   1 (Re ), wfc  2 (l=1 m= 3)
     state #   5: atom   1 (Re ), wfc  3 (l=2 m= 1)
     state #   6: atom   1 (Re ), wfc  3 (l=2 m= 2)
     state #   7: atom   1 (Re ), wfc  3 (l=2 m= 3)
     state #   8: atom   1 (Re ), wfc  3 (l=2 m= 4)
     state #   9: atom   1 (Re ), wfc  3 (l=2 m= 5)
     state #  10: atom   1 (Re ), wfc  4 (l=0 m= 1)
     state #  11: atom   1 (Re ), wfc  5 (l=1 m= 1)
     state #  12: atom   1 (Re ), wfc  5 (l=1 m= 2)
     state #  13: atom   1 (Re ), wfc  5 (l=1 m= 3)
     state #  14: atom   2 (Re ), wfc  1 (l=0 m= 1)
     state #  15: atom   2 (Re ), wfc  2 (l=1 m= 1)
     state #  16: atom   2 (Re ), wfc  2 (l=1 m= 2)
     state #  17: atom   2 (Re ), wfc  2 (l=1 m= 3)
     state #  18: atom   2 (Re ), wfc  3 (l=2 m= 1)
     state #  19: atom   2 (Re ), wfc  3 (l=2 m= 2)
     state #  20: atom   2 (Re ), wfc  3 (l=2 m= 3)
     state #  21: atom   2 (Re ), wfc  3 (l=2 m= 4)
     state #  22: atom   2 (Re ), wfc  3 (l=2 m= 5)
     state #  23: atom   2 (Re ), wfc  4 (l=0 m= 1)
     state #  24: atom   2 (Re ), wfc  5 (l=1 m= 1)
     state #  25: atom   2 (Re ), wfc  5 (l=1 m= 2)
     state #  26: atom   2 (Re ), wfc  5 (l=1 m= 3)
     state #  27: atom   3 (Re ), wfc  1 (l=0 m= 1)
     state #  28: atom   3 (Re ), wfc  2 (l=1 m= 1)
     state #  29: atom   3 (Re ), wfc  2 (l=1 m= 2)
     state #  30: atom   3 (Re ), wfc  2 (l=1 m= 3)
     state #  31: atom   3 (Re ), wfc  3 (l=2 m= 1)
     state #  32: atom   3 (Re ), wfc  3 (l=2 m= 2)
     state #  33: atom   3 (Re ), wfc  3 (l=2 m= 3)
     state #  34: atom   3 (Re ), wfc  3 (l=2 m= 4)
     state #  35: atom   3 (Re ), wfc  3 (l=2 m= 5)
     state #  36: atom   3 (Re ), wfc  4 (l=0 m= 1)
     state #  37: atom   3 (Re ), wfc  5 (l=1 m= 1)
     state #  38: atom   3 (Re ), wfc  5 (l=1 m= 2)
     state #  39: atom   3 (Re ), wfc  5 (l=1 m= 3)
     state #  40: atom   4 (Re ), wfc  1 (l=0 m= 1)
     state #  41: atom   4 (Re ), wfc  2 (l=1 m= 1)
     state #  42: atom   4 (Re ), wfc  2 (l=1 m= 2)
     state #  43: atom   4 (Re ), wfc  2 (l=1 m= 3)
     state #  44: atom   4 (Re ), wfc  3 (l=2 m= 1)
     state #  45: atom   4 (Re ), wfc  3 (l=2 m= 2)
     state #  46: atom   4 (Re ), wfc  3 (l=2 m= 3)
     state #  47: atom   4 (Re ), wfc  3 (l=2 m= 4)
     state #  48: atom   4 (Re ), wfc  3 (l=2 m= 5)
     state #  49: atom   4 (Re ), wfc  4 (l=0 m= 1)
     state #  50: atom   4 (Re ), wfc  5 (l=1 m= 1)
     state #  51: atom   4 (Re ), wfc  5 (l=1 m= 2)
     state #  52: atom   4 (Re ), wfc  5 (l=1 m= 3)
     state #  53: atom   5 (Re ), wfc  1 (l=0 m= 1)
     state #  54: atom   5 (Re ), wfc  2 (l=1 m= 1)
     state #  55: atom   5 (Re ), wfc  2 (l=1 m= 2)
     state #  56: atom   5 (Re ), wfc  2 (l=1 m= 3)
     state #  57: atom   5 (Re ), wfc  3 (l=2 m= 1)
     state #  58: atom   5 (Re ), wfc  3 (l=2 m= 2)
     state #  59: atom   5 (Re ), wfc  3 (l=2 m= 3)
     state #  60: atom   5 (Re ), wfc  3 (l=2 m= 4)
     state #  61: atom   5 (Re ), wfc  3 (l=2 m= 5)
     state #  62: atom   5 (Re ), wfc  4 (l=0 m= 1)
     state #  63: atom   5 (Re ), wfc  5 (l=1 m= 1)
     state #  64: atom   5 (Re ), wfc  5 (l=1 m= 2)
     state #  65: atom   5 (Re ), wfc  5 (l=1 m= 3)
     state #  66: atom   6 (Re ), wfc  1 (l=0 m= 1)
     state #  67: atom   6 (Re ), wfc  2 (l=1 m= 1)
     state #  68: atom   6 (Re ), wfc  2 (l=1 m= 2)
     state #  69: atom   6 (Re ), wfc  2 (l=1 m= 3)
     state #  70: atom   6 (Re ), wfc  3 (l=2 m= 1)
     state #  71: atom   6 (Re ), wfc  3 (l=2 m= 2)
     state #  72: atom   6 (Re ), wfc  3 (l=2 m= 3)
     state #  73: atom   6 (Re ), wfc  3 (l=2 m= 4)
     state #  74: atom   6 (Re ), wfc  3 (l=2 m= 5)
     state #  75: atom   6 (Re ), wfc  4 (l=0 m= 1)
     state #  76: atom   6 (Re ), wfc  5 (l=1 m= 1)
     state #  77: atom   6 (Re ), wfc  5 (l=1 m= 2)
     state #  78: atom   6 (Re ), wfc  5 (l=1 m= 3)
     state #  79: atom   7 (B  ), wfc  1 (l=0 m= 1)
     state #  80: atom   7 (B  ), wfc  2 (l=1 m= 1)
     state #  81: atom   7 (B  ), wfc  2 (l=1 m= 2)
     state #  82: atom   7 (B  ), wfc  2 (l=1 m= 3)
     state #  83: atom   8 (B  ), wfc  1 (l=0 m= 1)
     state #  84: atom   8 (B  ), wfc  2 (l=1 m= 1)
     state #  85: atom   8 (B  ), wfc  2 (l=1 m= 2)
     state #  86: atom   8 (B  ), wfc  2 (l=1 m= 3)
     state #  87: atom   9 (B  ), wfc  1 (l=0 m= 1)
     state #  88: atom   9 (B  ), wfc  2 (l=1 m= 1)
     state #  89: atom   9 (B  ), wfc  2 (l=1 m= 2)
     state #  90: atom   9 (B  ), wfc  2 (l=1 m= 3)
     state #  91: atom  10 (B  ), wfc  1 (l=0 m= 1)
     state #  92: atom  10 (B  ), wfc  2 (l=1 m= 1)
     state #  93: atom  10 (B  ), wfc  2 (l=1 m= 2)
     state #  94: atom  10 (B  ), wfc  2 (l=1 m= 3)
     state #  95: atom  11 (B  ), wfc  1 (l=0 m= 1)
     state #  96: atom  11 (B  ), wfc  2 (l=1 m= 1)
     state #  97: atom  11 (B  ), wfc  2 (l=1 m= 2)
     state #  98: atom  11 (B  ), wfc  2 (l=1 m= 3)
     state #  99: atom  12 (B  ), wfc  1 (l=0 m= 1)
     state # 100: atom  12 (B  ), wfc  2 (l=1 m= 1)
     state # 101: atom  12 (B  ), wfc  2 (l=1 m= 2)
     state # 102: atom  12 (B  ), wfc  2 (l=1 m= 3)
     state # 103: atom  13 (B  ), wfc  1 (l=0 m= 1)
     state # 104: atom  13 (B  ), wfc  2 (l=1 m= 1)
     state # 105: atom  13 (B  ), wfc  2 (l=1 m= 2)
     state # 106: atom  13 (B  ), wfc  2 (l=1 m= 3)
     state # 107: atom  14 (B  ), wfc  1 (l=0 m= 1)
     state # 108: atom  14 (B  ), wfc  2 (l=1 m= 1)
     state # 109: atom  14 (B  ), wfc  2 (l=1 m= 2)
     state # 110: atom  14 (B  ), wfc  2 (l=1 m= 3)

 k =   0.0000000000  0.0000000000  0.0000000000
==== e(   1) =   -75.37839 eV ==== 
     psi = 0.417*[#  53]+0.417*[#  66]+0.073*[#  40]+0.013*[#  11]+0.013*[#  24]
          +0.013*[#  37]+0.004*[#  80]+0.004*[#  88]+0.004*[# 108]+0.004*[#  10]
          +0.004*[#  23]+0.004*[#  36]+0.004*[#  49]+0.003*[#   1]+0.003*[#  14]
          +0.003*[#  27]+0.002*[#  44]+0.001*[#  84]+0.001*[#  92]+0.001*[# 100]
          +0.001*[#  96]+0.001*[# 104]
    |psi|^2 = 1.000
==== e(   2) =   -75.30529 eV ==== 
     psi = 0.482*[#  53]+0.482*[#  66]+0.009*[#  62]+0.009*[#  75]+0.002*[#  13]
          +0.002*[#  25]+0.002*[#  38]+0.001*[#  82]
    |psi|^2 = 1.000
==== e(   3) =   -75.23079 eV ==== 
     psi = 0.874*[#  40]+0.043*[#  53]+0.043*[#  66]+0.009*[#  49]+0.004*[#  62]
          +0.004*[#  75]+0.002*[#  12]+0.002*[#  81]+0.001*[#  26]+0.001*[#  39]
          +0.001*[#  90]+0.001*[# 110]+0.001*[#  11]+0.001*[#  24]+0.001*[#  37]
          
    |psi|^2 = 1.000
==== e(   4) =   -74.86463 eV ==== 
     psi = 0.301*[#   1]+0.301*[#  14]+0.301*[#  27]+0.023*[#  63]+0.023*[#  76]
          +0.018*[#  50]+0.004*[#  53]+0.004*[#  66]+0.004*[#  62]+0.004*[#  75]
          +0.002*[#  49]+0.002*[#  40]+0.001*[#   5]+0.001*[#  18]+0.001*[#  31]
          
    |psi|^2 = 1.000
==== e(   5) =   -74.78701 eV ==== 
     psi = 0.324*[#   1]+0.324*[#  14]+0.324*[#  27]+0.005*[#  10]+0.005*[#  23]
          +0.005*[#  36]+0.001*[#  64]+0.001*[#  65]+0.001*[#  77]+0.001*[#  78]
          
    |psi|^2 = 1.000
==== e(   6) =   -74.78696 eV ==== 
     psi = 0.324*[#   1]+0.324*[#  14]+0.324*[#  27]+0.005*[#  10]+0.005*[#  23]
          +0.005*[#  36]+0.001*[#  64]+0.001*[#  65]+0.001*[#  77]+0.001*[#  78]
          
    |psi|^2 = 1.000
==== e(   7) =   -37.59122 eV ==== 
     psi = 0.333*[#  54]+0.333*[#  67]+0.069*[#   2]+0.069*[#  15]+0.069*[#  28]
          +0.067*[#  41]+0.006*[#  50]+0.005*[#   3]+0.004*[#  11]+0.004*[#  24]
          +0.004*[#  37]+0.004*[#  17]+0.004*[#  30]+0.003*[#  63]+0.003*[#  76]
          +0.001*[#  16]+0.001*[#  29]+0.001*[#  10]+0.001*[#  23]+0.001*[#  36]
          +0.001*[#  80]+0.001*[#  88]+0.001*[# 108]
    |psi|^2 = 1.000
==== e(   8) =   -37.50276 eV ==== 
     psi = 0.204*[#  55]+0.204*[#  56]+0.204*[#  68]+0.204*[#  69]+0.034*[#  42]
          +0.034*[#  43]+0.028*[#   2]+0.028*[#  15]+0.028*[#  28]+0.003*[#  47]
          +0.003*[#  48]+0.002*[#   3]+0.002*[#  17]+0.002*[#  30]+0.002*[#   4]
          +0.002*[#  16]+0.002*[#  29]+0.001*[#  80]+0.001*[#  88]+0.001*[# 108]
          +0.001*[#  60]+0.001*[#  61]+0.001*[#  73]+0.001*[#  74]
    |psi|^2 = 1.000
==== e(   9) =   -37.50272 eV ==== 
     psi = 0.204*[#  55]+0.204*[#  56]+0.204*[#  68]+0.204*[#  69]+0.034*[#  42]
          +0.034*[#  43]+0.028*[#   2]+0.028*[#  15]+0.028*[#  28]+0.003*[#  47]
          +0.003*[#  48]+0.002*[#   3]+0.002*[#  17]+0.002*[#  30]+0.002*[#   4]
          +0.002*[#  16]+0.002*[#  29]+0.001*[#  80]+0.001*[#  88]+0.001*[# 108]
          +0.001*[#  60]+0.001*[#  61]+0.001*[#  73]+0.001*[#  74]
    |psi|^2 = 1.000
==== e(  10) =   -37.41696 eV ==== 
     psi = 0.248*[#  42]+0.248*[#  43]+0.108*[#  55]+0.108*[#  56]+0.108*[#  68]
          +0.108*[#  69]+0.007*[#   4]+0.007*[#  16]+0.007*[#  29]+0.006*[#  17]
          +0.006*[#  30]+0.005*[#   3]+0.003*[#   2]+0.003*[#  15]+0.003*[#  28]
          +0.002*[#  60]+0.002*[#  61]+0.002*[#  73]+0.002*[#  74]
    |psi|^2 = 1.000
==== e(  11) =   -37.41693 eV ==== 
     psi = 0.248*[#  42]+0.248*[#  43]+0.108*[#  55]+0.108*[#  56]+0.108*[#  68]
          +0.108*[#  69]+0.007*[#   4]+0.007*[#  16]+0.007*[#  29]+0.006*[#  17]
          +0.006*[#  30]+0.005*[#   3]+0.003*[#   2]+0.003*[#  15]+0.003*[#  28]
          +0.002*[#  60]+0.002*[#  61]+0.002*[#  73]+0.002*[#  74]
    |psi|^2 = 1.000
==== e(  12) =   -37.38127 eV ==== 
     psi = 0.384*[#  54]+0.384*[#  67]+0.069*[#   4]+0.052*[#  16]+0.052*[#  29]
          +0.017*[#  17]+0.017*[#  30]+0.002*[#  13]+0.002*[#   9]+0.002*[#  25]
          +0.002*[#  38]+0.001*[#  21]+0.001*[#  34]+0.001*[#  63]+0.001*[#  76]
          +0.001*[#  82]+0.001*[#   7]+0.001*[#  96]+0.001*[# 104]
    |psi|^2 = 1.000
==== e(  13) =   -37.19943 eV ==== 
     psi = 0.681*[#  41]+0.066*[#   3]+0.050*[#  17]+0.050*[#  30]+0.038*[#  54]
          +0.038*[#  67]+0.017*[#  16]+0.017*[#  29]+0.006*[#   2]+0.006*[#  15]
          +0.006*[#  28]+0.002*[#  12]+0.001*[#   8]+0.001*[#  63]+0.001*[#  76]
          +0.001*[#  81]+0.001*[#  26]+0.001*[#  39]+0.001*[#  22]+0.001*[#  35]
          +0.001*[#  90]+0.001*[# 110]
    |psi|^2 = 1.000
==== e(  14) =   -36.78806 eV ==== 
     psi = 0.138*[#  42]+0.138*[#  43]+0.095*[#   4]+0.086*[#  16]+0.086*[#  29]
          +0.067*[#  17]+0.067*[#  30]+0.057*[#   3]+0.056*[#  55]+0.056*[#  56]
          +0.056*[#  68]+0.056*[#  69]+0.006*[#  51]+0.006*[#  52]+0.003*[#   2]
          +0.003*[#  15]+0.003*[#  28]+0.003*[#  64]+0.003*[#  65]+0.003*[#  77]
          +0.003*[#  78]
    |psi|^2 = 1.000
==== e(  15) =   -36.78806 eV ==== 
     psi = 0.138*[#  42]+0.138*[#  43]+0.095*[#   4]+0.086*[#  16]+0.086*[#  29]
          +0.067*[#  17]+0.067*[#  30]+0.057*[#   3]+0.056*[#  55]+0.056*[#  56]
          +0.056*[#  68]+0.056*[#  69]+0.006*[#  51]+0.006*[#  52]+0.003*[#   2]
          +0.003*[#  15]+0.003*[#  28]+0.003*[#  64]+0.003*[#  65]+0.003*[#  77]
          +0.003*[#  78]
    |psi|^2 = 1.000
==== e(  16) =   -36.75407 eV ==== 
     psi = 0.099*[#   3]+0.090*[#  17]+0.090*[#  30]+0.088*[#  55]+0.088*[#  56]
          +0.088*[#  68]+0.088*[#  69]+0.073*[#  16]+0.073*[#  29]+0.065*[#   4]
          +0.059*[#  42]+0.059*[#  43]+0.005*[#  64]+0.005*[#  65]+0.005*[#  77]
          +0.005*[#  78]+0.003*[#  51]+0.003*[#  52]+0.002*[#   2]+0.002*[#  15]
          +0.002*[#  28]+0.001*[#   9]
    |psi|^2 = 1.000
==== e(  17) =   -36.75407 eV ==== 
     psi = 0.099*[#   3]+0.090*[#  17]+0.090*[#  30]+0.088*[#  55]+0.088*[#  56]
          +0.088*[#  68]+0.088*[#  69]+0.073*[#  16]+0.073*[#  29]+0.065*[#   4]
          +0.059*[#  42]+0.059*[#  43]+0.005*[#  64]+0.005*[#  65]+0.005*[#  77]
          +0.005*[#  78]+0.003*[#  51]+0.003*[#  52]+0.002*[#   2]+0.002*[#  15]
          +0.002*[#  28]+0.001*[#   9]
    |psi|^2 = 1.000
==== e(  18) =   -36.67978 eV ==== 
     psi = 0.248*[#   3]+0.186*[#  17]+0.186*[#  30]+0.176*[#  41]+0.062*[#  16]
          +0.062*[#  29]+0.018*[#  54]+0.018*[#  67]+0.008*[#  50]+0.007*[#   2]
          +0.007*[#  15]+0.007*[#  28]+0.002*[#   8]+0.002*[#  63]+0.002*[#  76]
          +0.001*[#  22]+0.001*[#  35]+0.001*[#  49]
    |psi|^2 = 1.000
==== e(  19) =   -36.66512 eV ==== 
     psi = 0.257*[#   4]+0.193*[#  16]+0.193*[#  29]+0.101*[#  54]+0.101*[#  67]
          +0.064*[#  17]+0.064*[#  30]+0.007*[#  63]+0.007*[#  76]+0.002*[#   9]
          +0.001*[#  21]+0.001*[#  34]+0.001*[#  62]+0.001*[#  75]
    |psi|^2 = 1.000
==== e(  20) =   -36.58621 eV ==== 
     psi = 0.291*[#   2]+0.291*[#  15]+0.291*[#  28]+0.025*[#  55]+0.025*[#  56]
          +0.025*[#  68]+0.025*[#  69]+0.004*[#  11]+0.004*[#  24]+0.004*[#  37]
          +0.003*[#  42]+0.003*[#  43]+0.001*[#  64]+0.001*[#  65]+0.001*[#  77]
          +0.001*[#  78]
    |psi|^2 = 1.000
==== e(  21) =   -36.58617 eV ==== 
     psi = 0.291*[#   2]+0.291*[#  15]+0.291*[#  28]+0.025*[#  55]+0.025*[#  56]
          +0.025*[#  68]+0.025*[#  69]+0.004*[#  11]+0.004*[#  24]+0.004*[#  37]
          +0.003*[#  42]+0.003*[#  43]+0.001*[#  64]+0.001*[#  65]+0.001*[#  77]
          +0.001*[#  78]
    |psi|^2 = 1.000
==== e(  22) =   -36.58055 eV ==== 
     psi = 0.242*[#   2]+0.242*[#  15]+0.242*[#  28]+0.093*[#  54]+0.093*[#  67]
          +0.044*[#  41]+0.007*[#   3]+0.005*[#  17]+0.005*[#  30]+0.002*[#  62]
          +0.002*[#  75]+0.002*[#  10]+0.002*[#  23]+0.002*[#  36]+0.002*[#  16]
          +0.002*[#  29]+0.001*[#  49]
    |psi|^2 = 1.000
==== e(  23) =   -36.17210 eV ==== 
     psi = 0.158*[#   3]+0.157*[#  17]+0.157*[#  30]+0.154*[#  16]+0.154*[#  29]
          +0.153*[#   4]+0.009*[#  13]+0.009*[#  25]+0.009*[#  12]+0.009*[#  26]
          +0.009*[#  38]+0.009*[#  39]+0.002*[#  55]+0.002*[#  56]+0.002*[#  68]
          +0.002*[#  69]+0.002*[#  42]+0.002*[#  43]
    |psi|^2 = 1.000
==== e(  24) =   -36.17209 eV ==== 
     psi = 0.158*[#   3]+0.157*[#  17]+0.157*[#  30]+0.154*[#  16]+0.154*[#  29]
          +0.153*[#   4]+0.009*[#  13]+0.009*[#  25]+0.009*[#  12]+0.009*[#  26]
          +0.009*[#  38]+0.009*[#  39]+0.002*[#  55]+0.002*[#  56]+0.002*[#  68]
          +0.002*[#  69]+0.002*[#  42]+0.002*[#  43]
    |psi|^2 = 1.000
==== e(  25) =   -12.02347 eV ==== 
     psi = 0.101*[#  95]+0.101*[# 103]+0.083*[#  79]+0.083*[#  83]+0.083*[#  87]
          +0.083*[#  91]+0.083*[#  99]+0.083*[# 107]+0.039*[#  63]+0.039*[#  76]
          +0.038*[#  50]+0.021*[#  96]+0.021*[# 104]+0.018*[#  49]+0.017*[#  62]
          +0.017*[#  75]+0.007*[#  85]+0.005*[#  94]+0.005*[# 102]+0.005*[#  81]
          +0.004*[#  80]+0.004*[#  88]+0.004*[# 108]+0.004*[#  57]+0.004*[#  70]
          +0.003*[#  90]+0.003*[# 110]+0.003*[#  54]+0.003*[#  67]+0.003*[#  53]
          +0.003*[#  66]+0.002*[#  10]+0.002*[#  23]+0.002*[#  36]+0.002*[#  11]
          +0.002*[#  24]+0.002*[#  37]+0.002*[#  84]+0.002*[#  92]+0.002*[# 100]
          +0.002*[#  40]+0.002*[#  93]+0.002*[# 101]+0.001*[#  41]+0.001*[#  44]
          +0.001*[#  89]+0.001*[# 109]
    |psi|^2 = 0.997
==== e(  26) =    -7.31394 eV ==== 
     psi = 0.119*[#  82]+0.115*[#  86]+0.094*[#  95]+0.094*[# 103]+0.089*[#  89]
          +0.089*[# 109]+0.086*[#  93]+0.086*[# 101]+0.030*[#  90]+0.030*[# 110]
          +0.029*[#  94]+0.029*[# 102]+0.025*[#  96]+0.025*[# 104]+0.014*[#  57]
          +0.014*[#  70]+0.005*[#  63]+0.005*[#  76]+0.004*[#  62]+0.004*[#  75]
          +0.002*[#  54]+0.002*[#  67]+0.002*[#  53]+0.002*[#  66]
    |psi|^2 = 0.997
==== e(  27) =    -6.88405 eV ==== 
     psi = 0.080*[#  97]+0.080*[#  98]+0.080*[# 105]+0.080*[# 106]+0.036*[#  85]
          +0.036*[#  79]+0.036*[#  87]+0.036*[#  94]+0.036*[# 102]+0.036*[# 107]
          +0.035*[#  93]+0.035*[# 101]+0.034*[#  86]+0.034*[#  81]+0.033*[#  90]
          +0.033*[# 110]+0.032*[#  89]+0.032*[# 109]+0.032*[#  82]+0.032*[#  83]
          +0.032*[#  91]+0.032*[#  99]+0.008*[#  58]+0.008*[#  59]+0.008*[#  71]
          +0.008*[#  72]+0.002*[#  64]+0.002*[#  65]+0.002*[#  77]+0.002*[#  78]
          +0.002*[#  47]+0.002*[#  48]+0.001*[#  84]+0.001*[#  92]+0.001*[# 100]
          
    |psi|^2 = 0.987
==== e(  28) =    -6.88399 eV ==== 
     psi = 0.080*[#  97]+0.080*[#  98]+0.080*[# 105]+0.080*[# 106]+0.036*[#  85]
          +0.036*[#  79]+0.036*[#  87]+0.036*[#  94]+0.036*[# 102]+0.036*[# 107]
          +0.035*[#  93]+0.035*[# 101]+0.034*[#  86]+0.034*[#  81]+0.033*[#  90]
          +0.033*[# 110]+0.032*[#  89]+0.032*[# 109]+0.032*[#  82]+0.032*[#  83]
          +0.032*[#  91]+0.032*[#  99]+0.008*[#  58]+0.008*[#  59]+0.008*[#  71]
          +0.008*[#  72]+0.002*[#  64]+0.002*[#  65]+0.002*[#  77]+0.002*[#  78]
          +0.002*[#  47]+0.002*[#  48]+0.001*[#  84]+0.001*[#  92]+0.001*[# 100]
          
    |psi|^2 = 0.987
==== e(  29) =    -5.15044 eV ==== 
     psi = 0.049*[#  79]+0.049*[#  87]+0.049*[# 107]+0.049*[#  86]+0.046*[#  83]
          +0.046*[#  91]+0.046*[#  99]+0.044*[#  82]+0.043*[#  97]+0.043*[#  98]
          +0.043*[# 105]+0.043*[# 106]+0.041*[#  93]+0.041*[# 101]+0.040*[#  89]
          +0.040*[# 109]+0.032*[#  90]+0.032*[# 110]+0.029*[#  81]+0.025*[#  45]
          +0.025*[#  46]+0.024*[#  94]+0.024*[# 102]+0.016*[#  85]+0.008*[#  51]
          +0.008*[#  52]+0.006*[#  58]+0.006*[#  59]+0.006*[#  71]+0.006*[#  72]
          +0.004*[#  84]+0.004*[#  92]+0.004*[# 100]+0.002*[#  60]+0.002*[#  61]
          +0.002*[#  73]+0.002*[#  74]+0.001*[#  42]+0.001*[#  43]+0.001*[#  64]
          +0.001*[#  65]+0.001*[#  77]+0.001*[#  78]
    |psi|^2 = 0.993
==== e(  30) =    -5.15037 eV ==== 
     psi = 0.049*[#  79]+0.049*[#  87]+0.049*[# 107]+0.049*[#  86]+0.046*[#  83]
          +0.046*[#  91]+0.046*[#  99]+0.044*[#  82]+0.043*[#  97]+0.043*[#  98]
          +0.043*[# 105]+0.043*[# 106]+0.041*[#  93]+0.041*[# 101]+0.040*[#  89]
          +0.040*[# 109]+0.032*[#  90]+0.032*[# 110]+0.029*[#  81]+0.025*[#  45]
          +0.025*[#  46]+0.024*[#  94]+0.024*[# 102]+0.016*[#  85]+0.008*[#  51]
          +0.008*[#  52]+0.006*[#  58]+0.006*[#  59]+0.006*[#  71]+0.006*[#  72]
          +0.004*[#  84]+0.004*[#  92]+0.004*[# 100]+0.002*[#  60]+0.002*[#  61]
          +0.002*[#  73]+0.002*[#  74]+0.001*[#  42]+0.001*[#  43]+0.001*[#  64]
          +0.001*[#  65]+0.001*[#  77]+0.001*[#  78]
    |psi|^2 = 0.993
==== e(  31) =    -5.12707 eV ==== 
     psi = 0.103*[#  49]+0.072*[#  62]+0.072*[#  75]+0.064*[#  80]+0.064*[#  88]
          +0.064*[# 108]+0.044*[#  84]+0.044*[#  92]+0.044*[# 100]+0.030*[#  85]
          +0.026*[#  10]+0.026*[#  23]+0.026*[#  36]+0.026*[#  95]+0.026*[# 103]
          +0.025*[#  81]+0.022*[#  94]+0.022*[# 102]+0.019*[#  90]+0.019*[# 110]
          +0.018*[#  40]+0.010*[#  57]+0.010*[#  70]+0.010*[#  11]+0.010*[#  24]
          +0.010*[#  37]+0.009*[#  53]+0.009*[#  66]+0.008*[#  96]+0.008*[# 104]
          +0.007*[#  93]+0.007*[# 101]+0.006*[#  89]+0.006*[# 109]+0.002*[#  79]
          +0.002*[#  87]+0.002*[# 107]+0.001*[#   1]+0.001*[#  14]+0.001*[#  27]
          +0.001*[#  41]
    |psi|^2 = 0.985
==== e(  32) =    -3.76748 eV ==== 
     psi = 0.107*[#  81]+0.092*[#  85]+0.080*[#  90]+0.080*[# 110]+0.069*[#  94]
          +0.069*[# 102]+0.058*[#  44]+0.036*[#  50]+0.027*[#  89]+0.027*[# 109]
          +0.025*[#  62]+0.025*[#  75]+0.023*[#  93]+0.023*[# 101]+0.019*[#  96]
          +0.019*[# 104]+0.018*[#  80]+0.018*[#  88]+0.018*[# 108]+0.016*[#  83]
          +0.016*[#  91]+0.016*[#  99]+0.010*[#  10]+0.010*[#  23]+0.010*[#  36]
          +0.007*[#  79]+0.007*[#  87]+0.007*[# 107]+0.005*[#  84]+0.005*[#  92]
          +0.005*[# 100]+0.004*[#  53]+0.004*[#  66]+0.004*[#  41]+0.002*[#  57]
          +0.002*[#  70]+0.002*[#  63]+0.002*[#  76]+0.001*[#   6]+0.001*[#   1]
          +0.001*[#  11]+0.001*[#  14]
    |psi|^2 = 0.984
==== e(  33) =    -2.38141 eV ==== 
     psi = 0.145*[#  10]+0.145*[#  23]+0.145*[#  36]+0.066*[#  63]+0.066*[#  76]
          +0.045*[#  50]+0.045*[#   5]+0.045*[#  18]+0.045*[#  31]+0.017*[#  84]
          +0.017*[#  92]+0.017*[# 100]+0.017*[#  80]+0.017*[#  88]+0.017*[# 108]
          +0.016*[#  44]+0.014*[#  96]+0.014*[# 104]+0.012*[#   1]+0.012*[#  14]
          +0.012*[#  27]+0.006*[#  95]+0.006*[# 103]+0.006*[#  57]+0.006*[#  70]
          +0.005*[#  49]+0.005*[#  54]+0.005*[#  67]+0.004*[#  62]+0.004*[#  75]
          +0.003*[#  41]+0.002*[#  83]+0.002*[#  91]+0.002*[#  99]+0.001*[#  81]
          
    |psi|^2 = 0.989
==== e(  34) =    -1.27552 eV ==== 
     psi = 0.168*[#  57]+0.168*[#  70]+0.104*[#  44]+0.052*[#  49]+0.047*[#  96]
          +0.047*[# 104]+0.041*[#  62]+0.041*[#  75]+0.037*[#   5]+0.037*[#  18]
          +0.037*[#  31]+0.031*[#  84]+0.031*[#  92]+0.031*[# 100]+0.011*[#  80]
          +0.011*[#  88]+0.011*[# 108]+0.010*[#  11]+0.010*[#  24]+0.010*[#  37]
          +0.007*[#  95]+0.007*[# 103]+0.006*[#  50]+0.002*[#  63]+0.002*[#  76]
          +0.002*[#  41]+0.001*[#  10]+0.001*[#  23]+0.001*[#  36]+0.001*[#  85]
          +0.001*[#  54]+0.001*[#  67]+0.001*[#  94]+0.001*[# 102]
    |psi|^2 = 0.976
==== e(  35) =    -0.00834 eV ==== 
     psi = 0.098*[#  58]+0.098*[#  59]+0.098*[#  71]+0.098*[#  72]+0.076*[#  80]
          +0.076*[#  88]+0.076*[# 108]+0.027*[#  47]+0.027*[#  48]+0.015*[#  60]
          +0.015*[#  61]+0.015*[#  73]+0.015*[#  74]+0.014*[#   6]+0.014*[#  20]
          +0.014*[#  33]+0.013*[#  19]+0.013*[#  32]+0.013*[#   7]+0.013*[#  97]
          +0.013*[#  98]+0.013*[# 105]+0.013*[# 106]+0.009*[#  51]+0.009*[#  52]
          +0.009*[#  84]+0.009*[#  92]+0.009*[# 100]+0.006*[#  64]+0.006*[#  65]
          +0.006*[#  77]+0.006*[#  78]+0.004*[#  79]+0.004*[#  87]+0.004*[# 107]
          +0.002*[#   8]+0.002*[#  12]+0.002*[#  22]+0.002*[#  35]+0.002*[#  38]
          +0.002*[#  39]+0.002*[#   9]+0.002*[#  13]+0.002*[#  21]+0.002*[#  25]
          +0.002*[#  26]+0.002*[#  34]+0.002*[#  85]+0.001*[#  86]+0.002*[#  93]
          +0.002*[#  94]+0.002*[# 101]+0.002*[# 102]+0.001*[#  42]+0.001*[#  43]
          
    |psi|^2 = 0.994
==== e(  36) =    -0.00825 eV ==== 
     psi = 0.098*[#  58]+0.098*[#  59]+0.098*[#  71]+0.098*[#  72]+0.076*[#  80]
          +0.076*[#  88]+0.076*[# 108]+0.027*[#  47]+0.027*[#  48]+0.015*[#  60]
          +0.015*[#  61]+0.015*[#  73]+0.015*[#  74]+0.014*[#   6]+0.014*[#  20]
          +0.014*[#  33]+0.013*[#  19]+0.013*[#  32]+0.013*[#   7]+0.013*[#  97]
          +0.013*[#  98]+0.013*[# 105]+0.013*[# 106]+0.009*[#  51]+0.009*[#  52]
          +0.009*[#  84]+0.009*[#  92]+0.009*[# 100]+0.006*[#  64]+0.006*[#  65]
          +0.006*[#  77]+0.006*[#  78]+0.004*[#  79]+0.004*[#  87]+0.004*[# 107]
          +0.002*[#   8]+0.002*[#  12]+0.002*[#  22]+0.002*[#  35]+0.002*[#  38]
          +0.002*[#  39]+0.002*[#   9]+0.002*[#  13]+0.002*[#  21]+0.002*[#  25]
          +0.002*[#  26]+0.002*[#  34]+0.002*[#  85]+0.001*[#  86]+0.002*[#  93]
          +0.002*[#  94]+0.002*[# 101]+0.002*[# 102]+0.001*[#  42]+0.001*[#  43]
          
    |psi|^2 = 0.994
==== e(  37) =     0.34275 eV ==== 
     psi = 0.117*[#  45]+0.117*[#  46]+0.037*[#   7]+0.037*[#  19]+0.037*[#  32]
          +0.037*[#   6]+0.037*[#  20]+0.037*[#  33]+0.032*[#  80]+0.032*[#  88]
          +0.032*[# 108]+0.030*[#  58]+0.030*[#  59]+0.030*[#  71]+0.030*[#  72]
          +0.026*[#  47]+0.026*[#  48]+0.013*[#  64]+0.013*[#  65]+0.013*[#  77]
          +0.013*[#  78]+0.012*[#  60]+0.012*[#  61]+0.012*[#  73]+0.012*[#  74]
          +0.009*[#   8]+0.009*[#  97]+0.009*[#  98]+0.009*[# 105]+0.009*[# 106]
          +0.008*[#  22]+0.008*[#  35]+0.007*[#  21]+0.007*[#  34]+0.006*[#   9]
          +0.006*[#  12]+0.006*[#  25]+0.006*[#  26]+0.006*[#  38]+0.006*[#  39]
          +0.006*[#  13]+0.004*[#  86]+0.003*[#  93]+0.003*[# 101]+0.003*[#  51]
          +0.003*[#  52]+0.002*[#   5]+0.002*[#  18]+0.002*[#  31]+0.002*[#  84]
          +0.002*[#  92]+0.002*[# 100]+0.002*[#  83]+0.002*[#  91]+0.002*[#  99]
          +0.001*[#  10]+0.001*[#  23]+0.001*[#  36]+0.001*[#  55]+0.001*[#  56]
          +0.001*[#  68]+0.001*[#  69]+0.001*[#  82]
    |psi|^2 = 0.996
==== e(  38) =     0.34283 eV ==== 
     psi = 0.117*[#  45]+0.117*[#  46]+0.037*[#   7]+0.037*[#  19]+0.037*[#  32]
          +0.037*[#   6]+0.037*[#  20]+0.037*[#  33]+0.032*[#  80]+0.032*[#  88]
          +0.032*[# 108]+0.030*[#  58]+0.030*[#  59]+0.030*[#  71]+0.030*[#  72]
          +0.026*[#  47]+0.026*[#  48]+0.013*[#  64]+0.013*[#  65]+0.013*[#  77]
          +0.013*[#  78]+0.012*[#  60]+0.012*[#  61]+0.012*[#  73]+0.012*[#  74]
          +0.009*[#   8]+0.009*[#  97]+0.009*[#  98]+0.009*[# 105]+0.009*[# 106]
          +0.008*[#  22]+0.008*[#  35]+0.007*[#  21]+0.007*[#  34]+0.006*[#   9]
          +0.006*[#  12]+0.006*[#  25]+0.006*[#  26]+0.006*[#  38]+0.006*[#  39]
          +0.006*[#  13]+0.004*[#  86]+0.003*[#  93]+0.003*[# 101]+0.003*[#  51]
          +0.003*[#  52]+0.002*[#   5]+0.002*[#  18]+0.002*[#  31]+0.002*[#  84]
          +0.002*[#  92]+0.002*[# 100]+0.002*[#  83]+0.002*[#  91]+0.002*[#  99]
          +0.001*[#  10]+0.001*[#  23]+0.001*[#  36]+0.001*[#  55]+0.001*[#  56]
          +0.001*[#  68]+0.001*[#  69]+0.001*[#  82]
    |psi|^2 = 0.996
==== e(  39) =     0.98898 eV ==== 
     psi = 0.069*[#   5]+0.069*[#  18]+0.069*[#  31]+0.069*[#  60]+0.069*[#  61]
          +0.069*[#  73]+0.069*[#  74]+0.040*[#  58]+0.040*[#  59]+0.040*[#  71]
          +0.040*[#  72]+0.038*[#  47]+0.038*[#  48]+0.023*[#  45]+0.023*[#  46]
          +0.022*[#  64]+0.022*[#  65]+0.022*[#  77]+0.022*[#  78]+0.021*[#  51]
          +0.021*[#  52]+0.018*[#  10]+0.018*[#  23]+0.018*[#  36]+0.006*[#  11]
          +0.006*[#  24]+0.006*[#  37]+0.002*[#  80]+0.002*[#  88]+0.002*[# 108]
          +0.002*[#   6]+0.002*[#  55]+0.002*[#  56]+0.002*[#  68]+0.002*[#  69]
          +0.002*[#  42]+0.002*[#  43]+0.002*[#  20]+0.002*[#  33]+0.001*[#   2]
          +0.001*[#  15]+0.001*[#  19]+0.001*[#  28]+0.001*[#  32]
    |psi|^2 = 0.999
==== e(  40) =     0.98908 eV ==== 
     psi = 0.069*[#   5]+0.069*[#  18]+0.069*[#  31]+0.069*[#  60]+0.069*[#  61]
          +0.069*[#  73]+0.069*[#  74]+0.040*[#  58]+0.040*[#  59]+0.040*[#  71]
          +0.040*[#  72]+0.038*[#  47]+0.038*[#  48]+0.023*[#  45]+0.023*[#  46]
          +0.022*[#  64]+0.022*[#  65]+0.022*[#  77]+0.022*[#  78]+0.021*[#  51]
          +0.021*[#  52]+0.018*[#  10]+0.018*[#  23]+0.018*[#  36]+0.006*[#  11]
          +0.006*[#  24]+0.006*[#  37]+0.002*[#  80]+0.002*[#  88]+0.002*[# 108]
          +0.002*[#   6]+0.002*[#  55]+0.002*[#  56]+0.002*[#  68]+0.002*[#  69]
          +0.002*[#  42]+0.002*[#  43]+0.002*[#  20]+0.002*[#  33]+0.001*[#   2]
          +0.001*[#  15]+0.001*[#  19]+0.001*[#  28]+0.001*[#  32]
    |psi|^2 = 0.999
==== e(  41) =     1.07706 eV ==== 
     psi = 0.137*[#  57]+0.137*[#  70]+0.099*[#   7]+0.075*[#  19]+0.075*[#  32]
          +0.061*[#   9]+0.046*[#  21]+0.046*[#  34]+0.038*[#  62]+0.038*[#  75]
          +0.025*[#  20]+0.025*[#  33]+0.022*[#  13]+0.016*[#  25]+0.016*[#  38]
          +0.015*[#  96]+0.015*[# 104]+0.015*[#  22]+0.015*[#  35]+0.011*[#  95]
          +0.011*[# 103]+0.007*[#  86]+0.007*[#  63]+0.007*[#  76]+0.005*[#  26]
          +0.005*[#  39]+0.005*[#  93]+0.005*[# 101]+0.003*[#   4]+0.002*[#  16]
          +0.002*[#  29]+0.002*[#  94]+0.002*[# 102]+0.001*[#  54]+0.001*[#  67]
          
    |psi|^2 = 0.996
==== e(  42) =     1.46009 eV ==== 
     psi = 0.073*[#  84]+0.073*[#  92]+0.073*[# 100]+0.056*[#  47]+0.056*[#  48]
          +0.051*[#  60]+0.051*[#  61]+0.051*[#  73]+0.051*[#  74]+0.033*[#  45]
          +0.033*[#  46]+0.029*[#  97]+0.029*[#  98]+0.029*[# 105]+0.029*[# 106]
          +0.026*[#  51]+0.026*[#  52]+0.020*[#  64]+0.020*[#  65]+0.020*[#  77]
          +0.020*[#  78]+0.008*[#  58]+0.008*[#  59]+0.008*[#  71]+0.008*[#  72]
          +0.007*[#  86]+0.006*[#  93]+0.006*[# 101]+0.006*[#  80]+0.006*[#  88]
          +0.006*[# 108]+0.005*[#   9]+0.005*[#  21]+0.005*[#  34]+0.005*[#  22]
          +0.005*[#  35]+0.005*[#   8]+0.004*[#  83]+0.004*[#  91]+0.004*[#  99]
          +0.004*[#  94]+0.004*[# 102]+0.002*[#  85]+0.002*[#  42]+0.002*[#  43]
          +0.001*[#  12]+0.001*[#  13]+0.001*[#  25]+0.001*[#  26]+0.001*[#  38]
          +0.001*[#  39]+0.001*[#   6]+0.001*[#  20]+0.001*[#  33]+0.001*[#  55]
          +0.001*[#  56]+0.001*[#  68]+0.001*[#  69]
    |psi|^2 = 0.994
==== e(  43) =     1.46017 eV ==== 
     psi = 0.073*[#  84]+0.073*[#  92]+0.073*[# 100]+0.056*[#  47]+0.056*[#  48]
          +0.051*[#  60]+0.051*[#  61]+0.051*[#  73]+0.051*[#  74]+0.033*[#  45]
          +0.033*[#  46]+0.029*[#  97]+0.029*[#  98]+0.029*[# 105]+0.029*[# 106]
          +0.026*[#  51]+0.026*[#  52]+0.020*[#  64]+0.020*[#  65]+0.020*[#  77]
          +0.020*[#  78]+0.008*[#  58]+0.008*[#  59]+0.008*[#  71]+0.008*[#  72]
          +0.007*[#  86]+0.006*[#  93]+0.006*[# 101]+0.006*[#  80]+0.006*[#  88]
          +0.006*[# 108]+0.005*[#   9]+0.005*[#  21]+0.005*[#  34]+0.005*[#  22]
          +0.005*[#  35]+0.005*[#   8]+0.004*[#  83]+0.004*[#  91]+0.004*[#  99]
          +0.004*[#  94]+0.004*[# 102]+0.002*[#  85]+0.002*[#  42]+0.002*[#  43]
          +0.001*[#  12]+0.001*[#  13]+0.001*[#  25]+0.001*[#  26]+0.001*[#  38]
          +0.001*[#  39]+0.001*[#   6]+0.001*[#  20]+0.001*[#  33]+0.001*[#  55]
          +0.001*[#  56]+0.001*[#  68]+0.001*[#  69]
    |psi|^2 = 0.994
==== e(  44) =     1.55673 eV ==== 
     psi = 0.154*[#  44]+0.122*[#   6]+0.092*[#  20]+0.092*[#  33]+0.068*[#   8]
          +0.051*[#  22]+0.051*[#  35]+0.031*[#  19]+0.031*[#  32]+0.028*[#  50]
          +0.027*[#  49]+0.025*[#  57]+0.025*[#  70]+0.024*[#  12]+0.018*[#  26]
          +0.018*[#  39]+0.017*[#  21]+0.017*[#  34]+0.015*[#  62]+0.015*[#  75]
          +0.008*[#  85]+0.006*[#  94]+0.006*[# 102]+0.006*[#  25]+0.006*[#  38]
          +0.004*[#  81]+0.003*[#  63]+0.003*[#  76]+0.003*[#  90]+0.003*[# 110]
          +0.003*[#   3]+0.002*[#  41]+0.002*[#  93]+0.002*[# 101]+0.002*[#  17]
          +0.002*[#  30]+0.002*[#  84]+0.002*[#  92]+0.002*[# 100]
    |psi|^2 = 0.996
==== e(  45) =     2.40264 eV ==== 
     psi = 0.119*[#  60]+0.119*[#  61]+0.119*[#  73]+0.119*[#  74]+0.104*[#  47]
          +0.104*[#  48]+0.027*[#  82]+0.026*[#  89]+0.026*[# 109]+0.024*[#  90]
          +0.024*[# 110]+0.023*[#  81]+0.016*[#  86]+0.016*[#  93]+0.016*[# 101]
          +0.014*[#  94]+0.014*[# 102]+0.014*[#  85]+0.009*[#   7]+0.007*[#  19]
          +0.007*[#  32]+0.006*[#   8]+0.005*[#  22]+0.005*[#  35]+0.004*[#  20]
          +0.004*[#  33]+0.003*[#  21]+0.003*[#  34]+0.002*[#   9]+0.002*[#   6]
          +0.002*[#  58]+0.002*[#  59]+0.002*[#  71]+0.002*[#  72]
    |psi|^2 = 0.997
==== e(  46) =     2.40264 eV ==== 
     psi = 0.119*[#  60]+0.119*[#  61]+0.119*[#  73]+0.119*[#  74]+0.104*[#  47]
          +0.104*[#  48]+0.027*[#  82]+0.026*[#  89]+0.026*[# 109]+0.024*[#  90]
          +0.024*[# 110]+0.023*[#  81]+0.016*[#  86]+0.016*[#  93]+0.016*[# 101]
          +0.014*[#  94]+0.014*[# 102]+0.014*[#  85]+0.009*[#   7]+0.007*[#  19]
          +0.007*[#  32]+0.006*[#   8]+0.005*[#  22]+0.005*[#  35]+0.004*[#  20]
          +0.004*[#  33]+0.003*[#  21]+0.003*[#  34]+0.002*[#   9]+0.002*[#   6]
          +0.002*[#  58]+0.002*[#  59]+0.002*[#  71]+0.002*[#  72]
    |psi|^2 = 0.997
==== e(  47) =     3.09596 eV ==== 
     psi = 0.228*[#   5]+0.228*[#  18]+0.228*[#  31]+0.080*[#  44]+0.059*[#  57]
          +0.059*[#  70]+0.019*[#  63]+0.019*[#  76]+0.018*[#  50]+0.006*[#  10]
          +0.006*[#  23]+0.006*[#  36]+0.006*[#  11]+0.006*[#  24]+0.006*[#  37]
          +0.003*[#  62]+0.003*[#  75]+0.002*[#  96]+0.002*[# 104]+0.001*[#  80]
          +0.001*[#  88]+0.001*[# 108]
    |psi|^2 = 0.996
==== e(  48) =     3.36079 eV ==== 
     psi = 0.165*[#   9]+0.127*[#  21]+0.127*[#  34]+0.052*[#   7]+0.051*[#  22]
          +0.051*[#  35]+0.046*[#  19]+0.046*[#  32]+0.034*[#  20]+0.034*[#  33]
          +0.028*[#   6]+0.020*[#  12]+0.020*[#  26]+0.020*[#  39]+0.019*[#  25]
          +0.019*[#  38]+0.019*[#  13]+0.013*[#   8]+0.010*[#  58]+0.010*[#  59]
          +0.010*[#  71]+0.010*[#  72]+0.009*[#  45]+0.009*[#  46]+0.006*[#  84]
          +0.006*[#  92]+0.006*[# 100]+0.003*[#  97]+0.003*[#  98]+0.003*[# 105]
          +0.003*[# 106]+0.002*[#  81]+0.001*[#  90]+0.001*[# 110]
    |psi|^2 = 0.998
==== e(  49) =     3.36080 eV ==== 
     psi = 0.165*[#   9]+0.127*[#  21]+0.127*[#  34]+0.052*[#   7]+0.051*[#  22]
          +0.051*[#  35]+0.046*[#  19]+0.046*[#  32]+0.034*[#  20]+0.034*[#  33]
          +0.028*[#   6]+0.020*[#  12]+0.020*[#  26]+0.020*[#  39]+0.019*[#  25]
          +0.019*[#  38]+0.019*[#  13]+0.013*[#   8]+0.010*[#  58]+0.010*[#  59]
          +0.010*[#  71]+0.010*[#  72]+0.009*[#  45]+0.009*[#  46]+0.006*[#  84]
          +0.006*[#  92]+0.006*[# 100]+0.003*[#  97]+0.003*[#  98]+0.003*[# 105]
          +0.003*[# 106]+0.002*[#  81]+0.001*[#  90]+0.001*[# 110]
    |psi|^2 = 0.998
==== e(  50) =     3.36202 eV ==== 
     psi = 0.144*[#   8]+0.143*[#   6]+0.108*[#  22]+0.108*[#  35]+0.107*[#  20]
          +0.107*[#  33]+0.042*[#  12]+0.036*[#  21]+0.036*[#  34]+0.036*[#  19]
          +0.036*[#  32]+0.031*[#  26]+0.031*[#  39]+0.010*[#  25]+0.010*[#  38]
          +0.003*[#  49]+0.002*[#   3]+0.001*[#  17]+0.001*[#  30]
    |psi|^2 = 0.998
==== e(  51) =     3.36354 eV ==== 
     psi = 0.148*[#   7]+0.140*[#   9]+0.111*[#  19]+0.111*[#  32]+0.105*[#  21]
          +0.105*[#  34]+0.041*[#  13]+0.037*[#  20]+0.037*[#  33]+0.035*[#  22]
          +0.035*[#  35]+0.031*[#  25]+0.031*[#  38]+0.010*[#  26]+0.010*[#  39]
          +0.003*[#  62]+0.003*[#  75]+0.002*[#   4]+0.001*[#  16]+0.001*[#  29]
          
    |psi|^2 = 0.998
==== e(  52) =     3.50930 eV ==== 
     psi = 0.198*[#   8]+0.155*[#  22]+0.155*[#  35]+0.069*[#  21]+0.069*[#  34]
          +0.032*[#  58]+0.032*[#  59]+0.032*[#  71]+0.032*[#  72]+0.026*[#   9]
          +0.026*[#  45]+0.026*[#  46]+0.022*[#   6]+0.017*[#  20]+0.017*[#  33]
          +0.007*[#  13]+0.006*[#  25]+0.006*[#  38]+0.006*[#  19]+0.006*[#  32]
          +0.005*[#  26]+0.005*[#  39]+0.005*[#  60]+0.005*[#  61]+0.005*[#  73]
          +0.005*[#  74]+0.005*[#  12]+0.002*[#  85]+0.002*[#  94]+0.002*[# 102]
          +0.001*[#  93]+0.001*[# 101]
    |psi|^2 = 0.998
==== e(  53) =     3.50933 eV ==== 
     psi = 0.198*[#   8]+0.155*[#  22]+0.155*[#  35]+0.069*[#  21]+0.069*[#  34]
          +0.032*[#  58]+0.032*[#  59]+0.032*[#  71]+0.032*[#  72]+0.026*[#   9]
          +0.026*[#  45]+0.026*[#  46]+0.022*[#   6]+0.017*[#  20]+0.017*[#  33]
          +0.007*[#  13]+0.006*[#  25]+0.006*[#  38]+0.006*[#  19]+0.006*[#  32]
          +0.005*[#  26]+0.005*[#  39]+0.005*[#  60]+0.005*[#  61]+0.005*[#  73]
          +0.005*[#  74]+0.005*[#  12]+0.002*[#  85]+0.002*[#  94]+0.002*[# 102]
          +0.001*[#  93]+0.001*[# 101]
    |psi|^2 = 0.998
==== e(  54) =     4.30712 eV ==== 
     psi = 0.069*[#  82]+0.066*[#  89]+0.066*[# 109]+0.062*[#  90]+0.062*[# 110]
          +0.060*[#  81]+0.052*[#  86]+0.049*[#  93]+0.049*[# 101]+0.042*[#  94]
          +0.042*[# 102]+0.039*[#  85]+0.028*[#  60]+0.028*[#  61]+0.028*[#  73]
          +0.028*[#  74]+0.027*[#  47]+0.027*[#  48]+0.014*[#   7]+0.013*[#  19]
          +0.013*[#  32]+0.010*[#   9]+0.010*[#  20]+0.010*[#  33]+0.010*[#  45]
          +0.010*[#  46]+0.009*[#   6]+0.009*[#  21]+0.009*[#  34]+0.006*[#  58]
          +0.006*[#  59]+0.006*[#  71]+0.006*[#  72]+0.006*[#  22]+0.006*[#  35]
          +0.004*[#   8]+0.002*[#  97]+0.002*[#  98]+0.002*[# 105]+0.002*[# 106]
          
    |psi|^2 = 0.996
==== e(  55) =     4.30713 eV ==== 
     psi = 0.069*[#  82]+0.066*[#  89]+0.066*[# 109]+0.062*[#  90]+0.062*[# 110]
          +0.060*[#  81]+0.052*[#  86]+0.049*[#  93]+0.049*[# 101]+0.042*[#  94]
          +0.042*[# 102]+0.039*[#  85]+0.028*[#  60]+0.028*[#  61]+0.028*[#  73]
          +0.028*[#  74]+0.027*[#  47]+0.027*[#  48]+0.014*[#   7]+0.013*[#  19]
          +0.013*[#  32]+0.010*[#   9]+0.010*[#  20]+0.010*[#  33]+0.010*[#  45]
          +0.010*[#  46]+0.009*[#   6]+0.009*[#  21]+0.009*[#  34]+0.006*[#  58]
          +0.006*[#  59]+0.006*[#  71]+0.006*[#  72]+0.006*[#  22]+0.006*[#  35]
          +0.004*[#   8]+0.002*[#  97]+0.002*[#  98]+0.002*[# 105]+0.002*[# 106]
          
    |psi|^2 = 0.996
==== e(  56) =     4.36168 eV ==== 
     psi = 0.261*[#  96]+0.261*[# 104]+0.066*[#  95]+0.066*[# 103]+0.036*[#   7]
          +0.030*[#  63]+0.030*[#  76]+0.027*[#  19]+0.027*[#  32]+0.022*[#  57]
          +0.022*[#  70]+0.020*[#   9]+0.015*[#  21]+0.015*[#  34]+0.013*[#  86]
          +0.010*[#  93]+0.010*[# 101]+0.009*[#  20]+0.009*[#  33]+0.005*[#  22]
          +0.005*[#  35]+0.003*[#  94]+0.003*[# 102]+0.003*[#  62]+0.003*[#  75]
          +0.003*[#  82]+0.002*[#  13]+0.002*[#  89]+0.002*[# 109]+0.002*[#  25]
          +0.002*[#  38]
    |psi|^2 = 0.991
==== e(  57) =     4.62915 eV ==== 
     psi = 0.205*[#  11]+0.205*[#  24]+0.205*[#  37]+0.075*[#  44]+0.054*[#  57]
          +0.054*[#  70]+0.028*[#  10]+0.028*[#  23]+0.028*[#  36]+0.012*[#  96]
          +0.012*[# 104]+0.006*[#  62]+0.006*[#  75]+0.005*[#  84]+0.005*[#  92]
          +0.005*[# 100]+0.005*[#  49]+0.004*[#   2]+0.004*[#  15]+0.004*[#  28]
          +0.003*[#  50]+0.003*[#   5]+0.003*[#  18]+0.003*[#  31]+0.003*[#  53]
          +0.003*[#  66]+0.002*[#  40]+0.002*[#  63]+0.002*[#  76]+0.002*[#  79]
          +0.002*[#  87]+0.002*[# 107]+0.001*[#  41]+0.001*[#  54]+0.001*[#  67]
          
    |psi|^2 = 0.990
==== e(  58) =     5.04911 eV ==== 
     psi = 0.068*[#  47]+0.068*[#  48]+0.068*[#   9]+0.051*[#  21]+0.051*[#  34]
          +0.034*[#  60]+0.034*[#  61]+0.034*[#  73]+0.034*[#  74]+0.025*[#   7]
          +0.024*[#  85]+0.023*[#  45]+0.023*[#  46]+0.022*[#  58]+0.022*[#  59]
          +0.022*[#  71]+0.022*[#  72]+0.021*[#  19]+0.021*[#  32]+0.021*[#  94]
          +0.021*[# 102]+0.018*[#  22]+0.018*[#  35]+0.018*[#  84]+0.018*[#  92]
          +0.018*[# 100]+0.014*[#  93]+0.014*[# 101]+0.013*[#  97]+0.013*[#  98]
          +0.013*[# 105]+0.013*[# 106]+0.013*[#  20]+0.013*[#  33]+0.010*[#  86]
          +0.008*[#   6]+0.006*[#  81]+0.006*[#  90]+0.006*[# 110]+0.004*[#  89]
          +0.004*[# 109]+0.003*[#  82]+0.002*[#   5]+0.002*[#  18]+0.002*[#  31]
          +0.002*[#  64]+0.002*[#  65]+0.002*[#  77]+0.002*[#  78]+0.002*[#  13]
          +0.002*[#  25]+0.002*[#  26]+0.002*[#  38]+0.002*[#  12]+0.002*[#  39]
          +0.002*[#  80]+0.002*[#  88]+0.002*[# 108]+0.001*[#   8]
    |psi|^2 = 0.992
==== e(  59) =     5.04913 eV ==== 
     psi = 0.068*[#  47]+0.068*[#  48]+0.068*[#   9]+0.051*[#  21]+0.051*[#  34]
          +0.034*[#  60]+0.034*[#  61]+0.034*[#  73]+0.034*[#  74]+0.025*[#   7]
          +0.024*[#  85]+0.023*[#  45]+0.023*[#  46]+0.022*[#  58]+0.022*[#  59]
          +0.022*[#  71]+0.022*[#  72]+0.021*[#  19]+0.021*[#  32]+0.021*[#  94]
          +0.021*[# 102]+0.018*[#  22]+0.018*[#  35]+0.018*[#  84]+0.018*[#  92]
          +0.018*[# 100]+0.014*[#  93]+0.014*[# 101]+0.013*[#  97]+0.013*[#  98]
          +0.013*[# 105]+0.013*[# 106]+0.012*[#  20]+0.012*[#  33]+0.010*[#  86]
          +0.008*[#   6]+0.006*[#  81]+0.006*[#  90]+0.006*[# 110]+0.004*[#  89]
          +0.004*[# 109]+0.003*[#  82]+0.002*[#   5]+0.002*[#  18]+0.002*[#  31]
          +0.002*[#  64]+0.002*[#  65]+0.002*[#  77]+0.002*[#  78]+0.002*[#  13]
          +0.002*[#  25]+0.002*[#  26]+0.002*[#  38]+0.002*[#  12]+0.002*[#  39]
          +0.002*[#  80]+0.002*[#  88]+0.002*[# 108]+0.001*[#   8]
    |psi|^2 = 0.992
==== e(  60) =     5.77590 eV ==== 
     psi = 0.059*[#  58]+0.059*[#  59]+0.059*[#  71]+0.059*[#  72]+0.053*[#   6]
          +0.048*[#   8]+0.040*[#  20]+0.040*[#  33]+0.037*[#  60]+0.037*[#  61]
          +0.037*[#  73]+0.037*[#  74]+0.036*[#  22]+0.036*[#  35]+0.033*[#  84]
          +0.033*[#  92]+0.033*[# 100]+0.021*[#  85]+0.017*[#  94]+0.017*[# 102]
          +0.015*[#  47]+0.015*[#  48]+0.015*[#  19]+0.015*[#  32]+0.014*[#  45]
          +0.014*[#  46]+0.013*[#  21]+0.013*[#  34]+0.010*[#  93]+0.010*[# 101]
          +0.006*[#  86]+0.005*[#  83]+0.005*[#  91]+0.005*[#  99]+0.005*[#  79]
          +0.005*[#  87]+0.004*[#  97]+0.004*[#  98]+0.004*[# 105]+0.004*[# 106]
          +0.005*[# 107]+0.002*[#   7]+0.001*[#  51]+0.001*[#  52]
    |psi|^2 = 0.989
==== e(  61) =     5.77593 eV ==== 
     psi = 0.059*[#  58]+0.059*[#  59]+0.059*[#  71]+0.059*[#  72]+0.053*[#   6]
          +0.048*[#   8]+0.040*[#  20]+0.040*[#  33]+0.037*[#  60]+0.037*[#  61]
          +0.037*[#  73]+0.037*[#  74]+0.036*[#  22]+0.036*[#  35]+0.033*[#  84]
          +0.033*[#  92]+0.033*[# 100]+0.021*[#  85]+0.017*[#  94]+0.017*[# 102]
          +0.015*[#  47]+0.015*[#  48]+0.015*[#  19]+0.015*[#  32]+0.014*[#  45]
          +0.014*[#  46]+0.013*[#  21]+0.013*[#  34]+0.010*[#  93]+0.010*[# 101]
          +0.006*[#  86]+0.005*[#  83]+0.005*[#  91]+0.005*[#  99]+0.005*[#  79]
          +0.005*[#  87]+0.004*[#  97]+0.004*[#  98]+0.004*[# 105]+0.004*[# 106]
          +0.005*[# 107]+0.002*[#   7]+0.001*[#  51]+0.001*[#  52]
    |psi|^2 = 0.989
==== e(  62) =     6.48637 eV ==== 
     psi = 0.240*[#  96]+0.240*[# 104]+0.051*[#  50]+0.044*[#  80]+0.044*[#  88]
          +0.044*[# 108]+0.037*[#  63]+0.037*[#  76]+0.024*[#  49]+0.023*[#  44]
          +0.020*[#  11]+0.020*[#  24]+0.020*[#  37]+0.015*[#  57]+0.015*[#  70]
          +0.009*[#  85]+0.007*[#  94]+0.007*[# 102]+0.005*[#  95]+0.005*[# 103]
          +0.005*[#  62]+0.005*[#  75]+0.004*[#  84]+0.004*[#  92]+0.004*[# 100]
          +0.002*[#  93]+0.002*[# 101]+0.002*[#  10]+0.002*[#  23]+0.002*[#  36]
          +0.002*[#  83]+0.002*[#  91]+0.002*[#  99]+0.001*[#   1]+0.001*[#  14]
          +0.001*[#  27]
    |psi|^2 = 0.954
==== e(  63) =     7.00211 eV ==== 
     psi = 0.355*[#  44]+0.115*[#  57]+0.115*[#  70]+0.039*[#   6]+0.037*[#   8]
          +0.029*[#  20]+0.029*[#  33]+0.028*[#  22]+0.028*[#  35]+0.017*[#  63]
          +0.017*[#  76]+0.017*[#  85]+0.016*[#  84]+0.016*[#  92]+0.016*[# 100]
          +0.012*[#  94]+0.012*[# 102]+0.011*[#  50]+0.010*[#  19]+0.010*[#  32]
          +0.009*[#  21]+0.009*[#  34]+0.004*[#  93]+0.004*[# 101]+0.003*[#  62]
          +0.003*[#  75]+0.002*[#  95]+0.002*[# 103]+0.002*[#  12]+0.001*[#  26]
          +0.001*[#  39]
    |psi|^2 = 0.978
==== e(  64) =     7.03634 eV ==== 
     psi = 0.143*[#   5]+0.143*[#  18]+0.143*[#  31]+0.059*[#  47]+0.059*[#  48]
          +0.038*[#   6]+0.035*[#  20]+0.035*[#  33]+0.030*[#  19]+0.030*[#  32]
          +0.027*[#   7]+0.020*[#  60]+0.020*[#  61]+0.020*[#  73]+0.020*[#  74]
          +0.007*[#  84]+0.007*[#  92]+0.007*[# 100]+0.007*[#  97]+0.007*[#  98]
          +0.007*[# 105]+0.007*[# 106]+0.007*[#  11]+0.007*[#  24]+0.007*[#  37]
          +0.005*[#  80]+0.005*[#  88]+0.005*[# 108]+0.005*[#  10]+0.005*[#  23]
          +0.005*[#  36]+0.004*[#  79]+0.004*[#  87]+0.004*[# 107]+0.004*[#  82]
          +0.004*[#  45]+0.004*[#  46]+0.004*[#  89]+0.004*[# 109]+0.003*[#  85]
          +0.003*[#  58]+0.003*[#  59]+0.003*[#  71]+0.003*[#  72]+0.003*[#  90]
          +0.003*[# 110]+0.003*[#  81]+0.003*[#  94]+0.003*[# 102]+0.002*[#  83]
          +0.002*[#  91]+0.002*[#  99]
    |psi|^2 = 0.992
==== e(  65) =     7.03636 eV ==== 
     psi = 0.143*[#   5]+0.143*[#  18]+0.143*[#  31]+0.059*[#  47]+0.059*[#  48]
          +0.038*[#   6]+0.035*[#  20]+0.035*[#  33]+0.030*[#  19]+0.030*[#  32]
          +0.027*[#   7]+0.020*[#  60]+0.020*[#  61]+0.020*[#  73]+0.020*[#  74]
          +0.007*[#  84]+0.007*[#  92]+0.007*[# 100]+0.007*[#  97]+0.007*[#  98]
          +0.007*[# 105]+0.007*[# 106]+0.007*[#  11]+0.007*[#  24]+0.007*[#  37]
          +0.005*[#  80]+0.005*[#  88]+0.005*[# 108]+0.005*[#  10]+0.005*[#  23]
          +0.005*[#  36]+0.004*[#  79]+0.004*[#  87]+0.004*[# 107]+0.004*[#  82]
          +0.004*[#  45]+0.004*[#  46]+0.004*[#  89]+0.004*[# 109]+0.003*[#  85]
          +0.003*[#  58]+0.003*[#  59]+0.003*[#  71]+0.003*[#  72]+0.003*[#  90]
          +0.003*[# 110]+0.003*[#  81]+0.003*[#  94]+0.003*[# 102]+0.002*[#  83]
          +0.002*[#  91]+0.002*[#  99]
    |psi|^2 = 0.992
==== e(  66) =     7.27798 eV ==== 
     psi = 0.092*[#   7]+0.080*[#  19]+0.080*[#  32]+0.056*[#  20]+0.056*[#  33]
          +0.056*[#   5]+0.056*[#  18]+0.056*[#  31]+0.045*[#   6]+0.024*[#  81]
          +0.020*[#  60]+0.020*[#  61]+0.020*[#  73]+0.020*[#  74]+0.019*[#  97]
          +0.019*[#  98]+0.019*[# 105]+0.019*[# 106]+0.019*[#  90]+0.019*[# 110]
          +0.015*[#  45]+0.015*[#  46]+0.013*[#  85]+0.010*[#  94]+0.010*[# 102]
          +0.009*[#  83]+0.009*[#  89]+0.009*[#  91]+0.009*[#  99]+0.009*[# 109]
          +0.008*[#  80]+0.008*[#  88]+0.008*[# 108]+0.005*[#  58]+0.005*[#  59]
          +0.005*[#  71]+0.005*[#  72]+0.004*[#  82]+0.004*[#  93]+0.004*[# 101]
          +0.003*[#  11]+0.003*[#  24]+0.003*[#  37]+0.002*[#  79]+0.002*[#  87]
          +0.002*[# 107]+0.001*[#   9]+0.001*[#  51]+0.001*[#  52]+0.001*[#  21]
          +0.001*[#  34]
    |psi|^2 = 0.989
==== e(  67) =     7.27799 eV ==== 
     psi = 0.092*[#   7]+0.080*[#  19]+0.080*[#  32]+0.056*[#  20]+0.056*[#  33]
          +0.056*[#   5]+0.056*[#  18]+0.056*[#  31]+0.045*[#   6]+0.024*[#  81]
          +0.020*[#  60]+0.020*[#  61]+0.020*[#  73]+0.020*[#  74]+0.019*[#  97]
          +0.019*[#  98]+0.019*[# 105]+0.019*[# 106]+0.019*[#  90]+0.019*[# 110]
          +0.015*[#  45]+0.015*[#  46]+0.013*[#  85]+0.010*[#  94]+0.010*[# 102]
          +0.009*[#  83]+0.009*[#  89]+0.009*[#  91]+0.009*[#  99]+0.009*[# 109]
          +0.008*[#  80]+0.008*[#  88]+0.008*[# 108]+0.005*[#  58]+0.005*[#  59]
          +0.005*[#  71]+0.005*[#  72]+0.004*[#  82]+0.004*[#  93]+0.004*[# 101]
          +0.003*[#  11]+0.003*[#  24]+0.003*[#  37]+0.002*[#  79]+0.002*[#  87]
          +0.002*[# 107]+0.001*[#   9]+0.001*[#  51]+0.001*[#  52]+0.001*[#  21]
          +0.001*[#  34]
    |psi|^2 = 0.989
==== e(  68) =     7.66642 eV ==== 
     psi = 0.099*[#  84]+0.099*[#  92]+0.099*[# 100]+0.064*[#  58]+0.064*[#  59]
          +0.064*[#  71]+0.064*[#  72]+0.049*[#  45]+0.049*[#  46]+0.036*[#   6]
          +0.030*[#  20]+0.030*[#  33]+0.020*[#  19]+0.020*[#  32]+0.017*[#   5]
          +0.017*[#  18]+0.017*[#  31]+0.014*[#   7]+0.009*[#   9]+0.008*[#  21]
          +0.008*[#  34]+0.007*[#  22]+0.007*[#  35]+0.007*[#   8]+0.006*[#  81]
          +0.006*[#  90]+0.006*[# 110]+0.006*[#  82]+0.006*[#  89]+0.006*[# 109]
          +0.004*[#  97]+0.004*[#  98]+0.004*[# 105]+0.004*[# 106]+0.003*[#  60]
          +0.003*[#  61]+0.003*[#  73]+0.003*[#  74]+0.002*[#  79]+0.002*[#  87]
          +0.002*[# 107]+0.001*[#  12]+0.001*[#  38]+0.001*[#  39]+0.001*[#  11]
          +0.001*[#  13]+0.001*[#  24]+0.001*[#  25]+0.001*[#  26]+0.001*[#  37]
          +0.001*[#  47]+0.001*[#  48]+0.001*[#  80]+0.001*[#  88]+0.001*[# 108]
          
    |psi|^2 = 0.988

 k =   0.0000000000  0.0721687836  0.0000000000
==== e(   1) =   -75.37754 eV ==== 
     psi = 0.416*[#  53]+0.416*[#  66]+0.071*[#  40]+0.012*[#  11]+0.012*[#  24]
          +0.012*[#  37]+0.004*[#  80]+0.004*[#  88]+0.004*[# 108]+0.004*[#  10]
          +0.004*[#  23]+0.004*[#  36]+0.003*[#  49]+0.003*[#   1]+0.003*[#  14]
          +0.003*[#  27]+0.002*[#  44]+0.002*[#  51]+0.002*[#  52]+0.001*[#  84]
          +0.001*[#  92]+0.001*[# 100]+0.001*[#  64]+0.001*[#  65]+0.001*[#  77]
          +0.001*[#  78]+0.001*[#  96]+0.001*[# 104]
    |psi|^2 = 1.000
==== e(   2) =   -75.30581 eV ==== 
     psi = 0.482*[#  53]+0.482*[#  66]+0.009*[#  62]+0.009*[#  75]+0.002*[#  13]
          +0.002*[#  25]+0.002*[#  38]+0.001*[#  82]
    |psi|^2 = 1.000
==== e(   3) =   -75.23115 eV ==== 
     psi = 0.874*[#  40]+0.043*[#  53]+0.043*[#  66]+0.009*[#  49]+0.003*[#  62]
          +0.003*[#  75]+0.002*[#  12]+0.002*[#  81]+0.001*[#  26]+0.001*[#  39]
          +0.001*[#  11]+0.001*[#  24]+0.001*[#  37]+0.001*[#  90]+0.001*[# 110]
          
    |psi|^2 = 1.000
==== e(   4) =   -74.86376 eV ==== 
     psi = 0.300*[#   1]+0.300*[#  14]+0.300*[#  27]+0.023*[#  63]+0.023*[#  76]
          +0.017*[#  50]+0.004*[#  53]+0.004*[#  66]+0.003*[#  62]+0.003*[#  75]
          +0.002*[#  49]+0.002*[#  40]+0.001*[#   5]+0.001*[#  18]+0.001*[#  31]
          +0.001*[#  12]+0.001*[#  13]+0.001*[#  25]+0.001*[#  26]+0.001*[#  38]
          +0.001*[#  39]
    |psi|^2 = 1.000
==== e(   5) =   -74.78747 eV ==== 
     psi = 0.324*[#   1]+0.324*[#  14]+0.324*[#  27]+0.005*[#  10]+0.005*[#  23]
          +0.005*[#  36]+0.001*[#  64]+0.001*[#  65]+0.001*[#  77]+0.001*[#  78]
          
    |psi|^2 = 1.000
==== e(   6) =   -74.78739 eV ==== 
     psi = 0.324*[#   1]+0.324*[#  14]+0.324*[#  27]+0.005*[#  10]+0.005*[#  23]
          +0.005*[#  36]+0.001*[#  64]+0.001*[#  65]+0.001*[#  77]+0.001*[#  78]
          
    |psi|^2 = 1.000
==== e(   7) =   -37.58879 eV ==== 
     psi = 0.334*[#  54]+0.334*[#  67]+0.069*[#   2]+0.069*[#  15]+0.069*[#  28]
          +0.066*[#  41]+0.006*[#  50]+0.005*[#   3]+0.004*[#  11]+0.004*[#  17]
          +0.004*[#  24]+0.004*[#  30]+0.004*[#  37]+0.003*[#  63]+0.003*[#  76]
          +0.002*[#  16]+0.002*[#  29]+0.001*[#  10]+0.001*[#  23]+0.001*[#  36]
          +0.001*[#  80]+0.001*[#  88]+0.001*[# 108]
    |psi|^2 = 1.000
==== e(   8) =   -37.53078 eV ==== 
     psi = 0.184*[#  55]+0.184*[#  56]+0.184*[#  68]+0.184*[#  69]+0.078*[#  42]
          +0.078*[#  43]+0.023*[#   2]+0.023*[#  15]+0.023*[#  28]+0.002*[#   3]
          +0.002*[#   4]+0.002*[#  16]+0.002*[#  17]+0.002*[#  29]+0.002*[#  30]
          +0.002*[#  47]+0.002*[#  48]+0.001*[#  60]+0.001*[#  61]+0.001*[#  73]
          +0.001*[#  74]+0.001*[#  80]+0.001*[#  88]+0.001*[# 108]
    |psi|^2 = 1.000
==== e(   9) =   -37.52636 eV ==== 
     psi = 0.184*[#  55]+0.184*[#  56]+0.184*[#  68]+0.184*[#  69]+0.077*[#  42]
          +0.077*[#  43]+0.023*[#   2]+0.023*[#  15]+0.023*[#  28]+0.002*[#   3]
          +0.002*[#   4]+0.002*[#  16]+0.002*[#  17]+0.002*[#  29]+0.002*[#  30]
          +0.002*[#  47]+0.002*[#  48]+0.001*[#  54]+0.001*[#  67]+0.001*[#  60]
          +0.001*[#  61]+0.001*[#  73]+0.001*[#  74]+0.001*[#  80]+0.001*[#  88]
          +0.001*[# 108]
    |psi|^2 = 1.000
==== e(  10) =   -37.39045 eV ==== 
     psi = 0.189*[#  54]+0.189*[#  67]+0.105*[#  42]+0.105*[#  43]+0.059*[#  55]
          +0.059*[#  56]+0.059*[#  68]+0.059*[#  69]+0.041*[#   4]+0.032*[#  16]
          +0.032*[#  29]+0.014*[#  17]+0.014*[#  30]+0.005*[#   3]+0.004*[#   2]
          +0.004*[#  15]+0.004*[#  28]+0.002*[#  13]+0.001*[#  25]+0.001*[#  38]
          +0.001*[#  60]+0.001*[#  61]+0.001*[#  73]+0.001*[#  74]
    |psi|^2 = 1.000
==== e(  11) =   -37.38476 eV ==== 
     psi = 0.194*[#  42]+0.194*[#  43]+0.119*[#  55]+0.119*[#  56]+0.119*[#  68]
          +0.119*[#  69]+0.022*[#  54]+0.022*[#  67]+0.010*[#   4]+0.009*[#  16]
          +0.009*[#  29]+0.008*[#   2]+0.008*[#  15]+0.008*[#  28]+0.006*[#  17]
          +0.006*[#  30]+0.005*[#   3]+0.002*[#  60]+0.002*[#  61]+0.002*[#  73]
          +0.002*[#  74]
    |psi|^2 = 1.000
==== e(  12) =   -37.37655 eV ==== 
     psi = 0.170*[#  54]+0.170*[#  67]+0.107*[#  42]+0.107*[#  43]+0.077*[#  55]
          +0.077*[#  56]+0.077*[#  68]+0.077*[#  69]+0.033*[#   4]+0.025*[#  16]
          +0.025*[#  29]+0.009*[#  17]+0.009*[#  30]+0.004*[#   2]+0.004*[#  15]
          +0.004*[#  28]+0.002*[#   3]+0.001*[#  60]+0.001*[#  61]+0.001*[#  73]
          +0.001*[#  74]
    |psi|^2 = 1.000
==== e(  13) =   -37.20222 eV ==== 
     psi = 0.675*[#  41]+0.067*[#   3]+0.050*[#  17]+0.050*[#  30]+0.036*[#  54]
          +0.036*[#  67]+0.017*[#  16]+0.017*[#  29]+0.007*[#   2]+0.007*[#  15]
          +0.007*[#  28]+0.002*[#  42]+0.002*[#  43]+0.002*[#  12]+0.001*[#   8]
          +0.001*[#  63]+0.001*[#  76]+0.001*[#  81]+0.001*[#  26]+0.001*[#  39]
          +0.001*[#  22]+0.001*[#  35]+0.001*[#  90]+0.001*[# 110]
    |psi|^2 = 1.000
==== e(  14) =   -36.79798 eV ==== 
     psi = 0.153*[#  42]+0.153*[#  43]+0.072*[#  55]+0.072*[#  56]+0.072*[#  68]
          +0.072*[#  69]+0.069*[#   4]+0.062*[#  16]+0.062*[#  29]+0.047*[#  17]
          +0.047*[#  30]+0.040*[#   3]+0.024*[#  41]+0.006*[#  51]+0.006*[#  52]
          +0.005*[#   2]+0.005*[#  15]+0.005*[#  28]+0.004*[#  64]+0.004*[#  65]
          +0.004*[#  77]+0.004*[#  78]
    |psi|^2 = 1.000
==== e(  15) =   -36.79310 eV ==== 
     psi = 0.126*[#  42]+0.126*[#  43]+0.105*[#   4]+0.093*[#  16]+0.093*[#  29]
          +0.070*[#  17]+0.070*[#  30]+0.059*[#   3]+0.048*[#  55]+0.048*[#  56]
          +0.048*[#  68]+0.048*[#  69]+0.010*[#  54]+0.010*[#  67]+0.006*[#  51]
          +0.006*[#  52]+0.004*[#   2]+0.004*[#  15]+0.004*[#  28]+0.003*[#  64]
          +0.003*[#  65]+0.003*[#  77]+0.003*[#  78]
    |psi|^2 = 1.000
==== e(  16) =   -36.76915 eV ==== 
     psi = 0.122*[#   3]+0.108*[#  17]+0.108*[#  30]+0.081*[#  16]+0.081*[#  29]
          +0.068*[#   4]+0.068*[#  55]+0.068*[#  56]+0.068*[#  68]+0.068*[#  69]
          +0.041*[#  42]+0.041*[#  43]+0.023*[#  41]+0.009*[#  54]+0.009*[#  67]
          +0.004*[#  64]+0.004*[#  65]+0.004*[#  77]+0.004*[#  78]+0.002*[#   2]
          +0.002*[#  15]+0.002*[#  28]+0.002*[#  51]+0.002*[#  52]+0.001*[#  50]
          
    |psi|^2 = 1.000
==== e(  17) =   -36.75960 eV ==== 
     psi = 0.096*[#  55]+0.096*[#  56]+0.096*[#  68]+0.096*[#  69]+0.078*[#   3]
          +0.074*[#  17]+0.074*[#  30]+0.071*[#  42]+0.071*[#  43]+0.064*[#  16]
          +0.064*[#  29]+0.059*[#   4]+0.012*[#  54]+0.012*[#  67]+0.006*[#  64]
          +0.006*[#  65]+0.006*[#  77]+0.006*[#  78]+0.003*[#  51]+0.003*[#  52]
          
    |psi|^2 = 1.000
==== e(  18) =   -36.66266 eV ==== 
     psi = 0.235*[#   3]+0.182*[#  17]+0.182*[#  30]+0.134*[#  41]+0.076*[#  16]
          +0.076*[#  29]+0.024*[#   4]+0.013*[#   2]+0.013*[#  15]+0.013*[#  28]
          +0.010*[#  54]+0.010*[#  67]+0.006*[#  50]+0.002*[#  55]+0.002*[#  56]
          +0.002*[#  68]+0.002*[#  69]+0.002*[#   8]+0.001*[#  22]+0.001*[#  35]
          +0.001*[#  63]+0.001*[#  76]+0.001*[#  49]
    |psi|^2 = 1.000
==== e(  19) =   -36.65046 eV ==== 
     psi = 0.245*[#   4]+0.189*[#  16]+0.189*[#  29]+0.077*[#  17]+0.077*[#  30]
          +0.075*[#  54]+0.075*[#  67]+0.020*[#   3]+0.006*[#   2]+0.006*[#  15]
          +0.006*[#  28]+0.005*[#  63]+0.005*[#  76]+0.002*[#  55]+0.002*[#  56]
          +0.002*[#  68]+0.002*[#  69]+0.002*[#   9]+0.001*[#  21]+0.001*[#  34]
          +0.001*[#  41]
    |psi|^2 = 1.000
==== e(  20) =   -36.58564 eV ==== 
     psi = 0.288*[#   2]+0.288*[#  15]+0.288*[#  28]+0.023*[#  55]+0.023*[#  56]
          +0.023*[#  68]+0.023*[#  69]+0.004*[#  41]+0.004*[#  11]+0.004*[#  24]
          +0.004*[#  37]+0.003*[#  42]+0.003*[#  43]+0.002*[#   3]+0.002*[#  17]
          +0.002*[#  30]+0.001*[#  54]+0.001*[#  64]+0.001*[#  65]+0.001*[#  67]
          +0.001*[#  77]+0.001*[#  78]
    |psi|^2 = 1.000
==== e(  21) =   -36.58458 eV ==== 
     psi = 0.284*[#   2]+0.284*[#  15]+0.284*[#  28]+0.023*[#  55]+0.023*[#  56]
          +0.023*[#  68]+0.023*[#  69]+0.005*[#  54]+0.005*[#  67]+0.004*[#   4]
          +0.004*[#  11]+0.004*[#  24]+0.004*[#  37]+0.003*[#  16]+0.003*[#  29]
          +0.003*[#  42]+0.003*[#  43]+0.001*[#  17]+0.001*[#  30]+0.001*[#  64]
          +0.001*[#  65]+0.001*[#  77]+0.001*[#  78]
    |psi|^2 = 1.000
==== e(  22) =   -36.57690 eV ==== 
     psi = 0.236*[#   2]+0.236*[#  15]+0.236*[#  28]+0.090*[#  54]+0.090*[#  67]
          +0.039*[#  41]+0.009*[#   3]+0.007*[#  17]+0.007*[#  30]+0.003*[#  55]
          +0.003*[#  56]+0.003*[#  68]+0.003*[#  69]+0.003*[#  42]+0.003*[#  43]
          +0.003*[#  16]+0.003*[#  29]+0.002*[#  10]+0.002*[#  23]+0.002*[#  36]
          +0.002*[#  62]+0.002*[#  75]+0.001*[#  49]
    |psi|^2 = 1.000
==== e(  23) =   -36.18331 eV ==== 
     psi = 0.159*[#   3]+0.157*[#  17]+0.157*[#  30]+0.155*[#  16]+0.155*[#  29]
          +0.153*[#   4]+0.008*[#  13]+0.008*[#  25]+0.008*[#  38]+0.008*[#  12]
          +0.008*[#  26]+0.008*[#  39]+0.002*[#  55]+0.002*[#  56]+0.002*[#  68]
          +0.002*[#  69]+0.002*[#  42]+0.002*[#  43]
    |psi|^2 = 1.000
==== e(  24) =   -36.17475 eV ==== 
     psi = 0.158*[#   3]+0.157*[#  17]+0.157*[#  30]+0.154*[#  16]+0.154*[#  29]
          +0.153*[#   4]+0.009*[#  13]+0.009*[#  25]+0.009*[#  12]+0.009*[#  26]
          +0.009*[#  38]+0.009*[#  39]+0.002*[#  55]+0.002*[#  56]+0.002*[#  68]
          +0.002*[#  69]+0.002*[#  42]+0.002*[#  43]
    |psi|^2 = 1.000
==== e(  25) =   -12.00199 eV ==== 
     psi = 0.099*[#  95]+0.099*[# 103]+0.081*[#  79]+0.081*[#  83]+0.081*[#  87]
          +0.081*[#  91]+0.081*[#  99]+0.081*[# 107]+0.038*[#  63]+0.038*[#  76]
          +0.037*[#  50]+0.021*[#  96]+0.021*[# 104]+0.017*[#  49]+0.017*[#  62]
          +0.017*[#  75]+0.007*[#  85]+0.006*[#  94]+0.006*[# 102]+0.005*[#  81]
          +0.004*[#  80]+0.004*[#  88]+0.004*[# 108]+0.004*[#  57]+0.004*[#  70]
          +0.004*[#  90]+0.004*[# 110]+0.003*[#  54]+0.003*[#  67]+0.003*[#  53]
          +0.003*[#  66]+0.003*[#  93]+0.003*[# 101]+0.002*[#  10]+0.002*[#  23]
          +0.002*[#  36]+0.002*[#  11]+0.002*[#  24]+0.002*[#  37]+0.002*[#  89]
          +0.002*[# 109]+0.002*[#  84]+0.002*[#  92]+0.002*[# 100]+0.002*[#  40]
          +0.001*[#  41]+0.001*[#  44]+0.001*[#  82]+0.001*[#  86]
    |psi|^2 = 0.997
==== e(  26) =    -7.61460 eV ==== 
     psi = 0.090*[#  82]+0.088*[#  86]+0.071*[#  89]+0.071*[# 109]+0.069*[#  93]
          +0.069*[# 101]+0.068*[#  95]+0.068*[# 103]+0.031*[#  90]+0.031*[#  94]
          +0.031*[# 102]+0.031*[# 110]+0.021*[#  97]+0.021*[#  98]+0.021*[# 105]
          +0.021*[# 106]+0.018*[#  96]+0.018*[# 104]+0.013*[#  79]+0.013*[#  87]
          +0.013*[# 107]+0.012*[#  85]+0.012*[#  83]+0.012*[#  91]+0.012*[#  99]
          +0.011*[#  81]+0.010*[#  57]+0.010*[#  70]+0.004*[#  63]+0.004*[#  76]
          +0.003*[#  62]+0.003*[#  75]+0.002*[#  58]+0.002*[#  59]+0.002*[#  71]
          +0.002*[#  72]+0.002*[#  54]+0.002*[#  67]+0.001*[#  53]+0.001*[#  66]
          
    |psi|^2 = 0.994
==== e(  27) =    -6.92073 eV ==== 
     psi = 0.080*[#  97]+0.080*[#  98]+0.080*[# 105]+0.080*[# 106]+0.037*[#  79]
          +0.037*[#  87]+0.037*[# 107]+0.035*[#  85]+0.034*[#  94]+0.034*[# 102]
          +0.034*[#  93]+0.034*[# 101]+0.033*[#  83]+0.033*[#  86]+0.033*[#  91]
          +0.033*[#  99]+0.033*[#  81]+0.033*[#  90]+0.033*[# 110]+0.032*[#  89]
          +0.032*[# 109]+0.031*[#  82]+0.008*[#  58]+0.008*[#  59]+0.008*[#  71]
          +0.008*[#  72]+0.002*[#  64]+0.002*[#  65]+0.002*[#  77]+0.002*[#  78]
          +0.002*[#  47]+0.002*[#  48]+0.001*[#  84]+0.001*[#  92]+0.001*[# 100]
          
    |psi|^2 = 0.987
==== e(  28) =    -6.61560 eV ==== 
     psi = 0.060*[#  82]+0.060*[#  86]+0.058*[#  97]+0.058*[#  98]+0.058*[# 105]
          +0.058*[# 106]+0.051*[#  93]+0.051*[# 101]+0.050*[#  89]+0.050*[# 109]
          +0.032*[#  94]+0.032*[# 102]+0.031*[#  90]+0.031*[# 110]+0.026*[#  95]
          +0.026*[# 103]+0.024*[#  79]+0.024*[#  87]+0.024*[# 107]+0.023*[#  85]
          +0.022*[#  83]+0.022*[#  91]+0.022*[#  99]+0.022*[#  81]+0.007*[#  96]
          +0.007*[# 104]+0.006*[#  58]+0.006*[#  59]+0.006*[#  71]+0.006*[#  72]
          +0.005*[#  57]+0.005*[#  70]+0.002*[#  64]+0.002*[#  65]+0.002*[#  77]
          +0.002*[#  78]+0.001*[#  47]+0.001*[#  48]
    |psi|^2 = 0.990
==== e(  29) =    -5.34560 eV ==== 
     psi = 0.043*[#  81]+0.043*[#  49]+0.039*[#  90]+0.039*[# 110]+0.037*[#  85]
          +0.035*[#  94]+0.035*[# 102]+0.031*[#  79]+0.031*[#  87]+0.031*[#  93]
          +0.031*[# 101]+0.031*[# 107]+0.030*[#  89]+0.030*[# 109]+0.029*[#  86]
          +0.027*[#  83]+0.027*[#  91]+0.027*[#  99]+0.026*[#  82]+0.024*[#  97]
          +0.024*[#  98]+0.024*[# 105]+0.024*[# 106]+0.017*[#  62]+0.017*[#  75]
          +0.016*[#  80]+0.016*[#  88]+0.016*[# 108]+0.016*[#  84]+0.016*[#  92]
          +0.016*[# 100]+0.012*[#  45]+0.012*[#  46]+0.011*[#  95]+0.011*[# 103]
          +0.008*[#  40]+0.006*[#  10]+0.006*[#  23]+0.006*[#  36]+0.005*[#  57]
          +0.005*[#  70]+0.004*[#  58]+0.004*[#  59]+0.004*[#  71]+0.004*[#  72]
          +0.003*[#  50]+0.003*[#  11]+0.003*[#  24]+0.003*[#  37]+0.002*[#  51]
          +0.002*[#  52]+0.002*[#  64]+0.002*[#  65]+0.002*[#  77]+0.002*[#  78]
          +0.002*[#  53]+0.002*[#  66]+0.001*[#  41]+0.001*[#  44]+0.001*[#  60]
          +0.001*[#  61]+0.001*[#  73]+0.001*[#  74]
    |psi|^2 = 0.992
==== e(  30) =    -5.07788 eV ==== 
     psi = 0.050*[#  86]+0.048*[#  79]+0.048*[#  87]+0.048*[# 107]+0.045*[#  82]
          +0.044*[#  83]+0.044*[#  91]+0.044*[#  99]+0.043*[#  97]+0.043*[#  98]
          +0.043*[# 105]+0.043*[# 106]+0.042*[#  93]+0.042*[# 101]+0.041*[#  89]
          +0.041*[# 109]+0.033*[#  90]+0.033*[# 110]+0.029*[#  81]+0.025*[#  94]
          +0.025*[# 102]+0.024*[#  45]+0.024*[#  46]+0.017*[#  85]+0.007*[#  51]
          +0.007*[#  52]+0.006*[#  58]+0.006*[#  59]+0.006*[#  71]+0.006*[#  72]
          +0.004*[#  84]+0.004*[#  92]+0.004*[# 100]+0.002*[#  60]+0.002*[#  61]
          +0.002*[#  73]+0.002*[#  74]+0.001*[#  64]+0.001*[#  65]+0.001*[#  77]
          +0.001*[#  78]+0.001*[#  42]+0.001*[#  43]
    |psi|^2 = 0.993
==== e(  31) =    -4.93666 eV ==== 
     psi = 0.058*[#  49]+0.057*[#  62]+0.057*[#  75]+0.052*[#  80]+0.052*[#  88]
          +0.052*[# 108]+0.033*[#  84]+0.033*[#  92]+0.033*[# 100]+0.020*[#  10]
          +0.020*[#  23]+0.020*[#  36]+0.016*[#  97]+0.016*[#  98]+0.016*[# 105]
          +0.016*[# 106]+0.016*[#  83]+0.016*[#  86]+0.016*[#  91]+0.016*[#  99]
          +0.016*[#  79]+0.016*[#  87]+0.016*[# 107]+0.016*[#  82]+0.015*[#  93]
          +0.015*[# 101]+0.015*[#  89]+0.015*[# 109]+0.015*[#  95]+0.015*[# 103]
          +0.014*[#  90]+0.014*[# 110]+0.014*[#  94]+0.014*[# 102]+0.013*[#  81]
          +0.013*[#  85]+0.010*[#  40]+0.010*[#  96]+0.010*[# 104]+0.009*[#  45]
          +0.009*[#  46]+0.008*[#  53]+0.008*[#  66]+0.007*[#  11]+0.007*[#  24]
          +0.007*[#  37]+0.006*[#  51]+0.006*[#  52]+0.005*[#  57]+0.005*[#  70]
          +0.003*[#  44]+0.002*[#  58]+0.002*[#  59]+0.002*[#  71]+0.002*[#  72]
          +0.001*[#   1]+0.001*[#  14]+0.001*[#  27]
    |psi|^2 = 0.984
==== e(  32) =    -3.62905 eV ==== 
     psi = 0.104*[#  81]+0.090*[#  85]+0.079*[#  90]+0.079*[# 110]+0.069*[#  94]
          +0.069*[# 102]+0.055*[#  44]+0.032*[#  50]+0.029*[#  89]+0.029*[# 109]
          +0.026*[#  93]+0.026*[# 101]+0.020*[#  62]+0.020*[#  75]+0.017*[#  96]
          +0.017*[# 104]+0.017*[#  83]+0.017*[#  91]+0.017*[#  99]+0.015*[#  80]
          +0.015*[#  88]+0.015*[# 108]+0.009*[#  79]+0.009*[#  87]+0.009*[# 107]
          +0.009*[#  10]+0.009*[#  23]+0.009*[#  36]+0.005*[#  86]+0.004*[#  45]
          +0.004*[#  46]+0.004*[#  84]+0.004*[#  92]+0.004*[# 100]+0.004*[#  82]
          +0.003*[#  53]+0.003*[#  66]+0.003*[#  41]+0.003*[#  97]+0.003*[#  98]
          +0.003*[# 105]+0.003*[# 106]+0.002*[#  57]+0.002*[#  70]+0.002*[#  63]
          +0.002*[#  76]+0.001*[#   6]
    |psi|^2 = 0.986
==== e(  33) =    -2.33566 eV ==== 
     psi = 0.142*[#  10]+0.142*[#  23]+0.142*[#  36]+0.065*[#  63]+0.065*[#  76]
          +0.045*[#  50]+0.043*[#   5]+0.043*[#  18]+0.043*[#  31]+0.017*[#  84]
          +0.017*[#  92]+0.017*[# 100]+0.017*[#  80]+0.017*[#  88]+0.017*[# 108]
          +0.016*[#  44]+0.015*[#  96]+0.015*[# 104]+0.012*[#   1]+0.012*[#  14]
          +0.012*[#  27]+0.006*[#  95]+0.006*[# 103]+0.006*[#  57]+0.006*[#  70]
          +0.005*[#  49]+0.005*[#  54]+0.005*[#  67]+0.004*[#  62]+0.004*[#  75]
          +0.003*[#  41]+0.002*[#  12]+0.002*[#  83]+0.002*[#  91]+0.002*[#  99]
          +0.002*[#  26]+0.002*[#  38]+0.002*[#  39]+0.002*[#  13]+0.002*[#  25]
          +0.001*[#  81]
    |psi|^2 = 0.989
==== e(  34) =    -1.24211 eV ==== 
     psi = 0.168*[#  57]+0.168*[#  70]+0.103*[#  44]+0.051*[#  49]+0.047*[#  96]
          +0.047*[# 104]+0.039*[#  62]+0.039*[#  75]+0.038*[#   5]+0.038*[#  18]
          +0.038*[#  31]+0.030*[#  84]+0.030*[#  92]+0.030*[# 100]+0.011*[#  80]
          +0.011*[#  88]+0.011*[# 108]+0.009*[#  11]+0.009*[#  24]+0.009*[#  37]
          +0.007*[#  95]+0.007*[# 103]+0.005*[#  50]+0.002*[#  63]+0.002*[#  76]
          +0.002*[#  41]+0.002*[#  10]+0.002*[#  23]+0.002*[#  36]+0.001*[#  85]
          +0.001*[#  54]+0.001*[#  67]+0.001*[#  94]+0.001*[# 102]
    |psi|^2 = 0.977
==== e(  35) =    -0.17265 eV ==== 
     psi = 0.081*[#  58]+0.081*[#  59]+0.081*[#  71]+0.081*[#  72]+0.068*[#  80]
          +0.068*[#  88]+0.068*[# 108]+0.032*[#  45]+0.032*[#  46]+0.027*[#  47]
          +0.027*[#  48]+0.015*[#   6]+0.015*[#  20]+0.015*[#  33]+0.015*[#  60]
          +0.015*[#  61]+0.015*[#  73]+0.015*[#  74]+0.015*[#  19]+0.015*[#  32]
          +0.015*[#   7]+0.013*[#  97]+0.013*[#  98]+0.013*[# 105]+0.013*[# 106]
          +0.010*[#  84]+0.010*[#  92]+0.010*[# 100]+0.007*[#  64]+0.007*[#  65]
          +0.007*[#  77]+0.007*[#  78]+0.006*[#  51]+0.006*[#  52]+0.003*[#  79]
          +0.003*[#  87]+0.003*[# 107]+0.003*[#   8]+0.003*[#  22]+0.003*[#  35]
          +0.003*[#  21]+0.003*[#  34]+0.002*[#   9]+0.002*[#  12]+0.002*[#  13]
          +0.002*[#  25]+0.002*[#  26]+0.002*[#  38]+0.002*[#  39]+0.002*[#  86]
          +0.002*[#  93]+0.002*[# 101]+0.002*[#  94]+0.002*[# 102]+0.002*[#  85]
          +0.001*[#  10]+0.001*[#  23]+0.001*[#  36]
    |psi|^2 = 0.995
==== e(  36) =    -0.15260 eV ==== 
     psi = 0.084*[#  58]+0.084*[#  59]+0.084*[#  71]+0.084*[#  72]+0.069*[#  80]
          +0.069*[#  88]+0.069*[# 108]+0.030*[#  45]+0.030*[#  46]+0.025*[#  47]
          +0.025*[#  48]+0.014*[#   6]+0.014*[#  20]+0.014*[#  33]+0.014*[#  60]
          +0.014*[#  61]+0.014*[#  73]+0.014*[#  74]+0.014*[#  19]+0.014*[#  32]
          +0.013*[#   7]+0.013*[#  97]+0.013*[#  98]+0.013*[# 105]+0.013*[# 106]
          +0.012*[#  84]+0.012*[#  92]+0.012*[# 100]+0.007*[#  51]+0.007*[#  52]
          +0.006*[#  64]+0.006*[#  65]+0.006*[#  77]+0.006*[#  78]+0.004*[#  79]
          +0.004*[#  87]+0.004*[# 107]+0.003*[#   8]+0.003*[#  22]+0.003*[#  35]
          +0.003*[#   9]+0.003*[#  21]+0.003*[#  34]+0.002*[#  12]+0.002*[#  13]
          +0.002*[#  25]+0.002*[#  26]+0.002*[#  38]+0.002*[#  39]+0.002*[#  86]
          +0.002*[#  93]+0.002*[# 101]+0.002*[#  94]+0.002*[# 102]+0.002*[#  85]
          +0.001*[#  10]+0.001*[#  23]+0.001*[#  36]+0.001*[#   5]+0.001*[#  18]
          +0.001*[#  31]+0.001*[#  83]+0.001*[#  91]+0.001*[#  99]
    |psi|^2 = 0.994
==== e(  37) =     0.42935 eV ==== 
     psi = 0.071*[#  45]+0.071*[#  46]+0.044*[#   7]+0.043*[#  19]+0.043*[#  32]
          +0.041*[#  20]+0.041*[#  33]+0.040*[#   6]+0.039*[#  58]+0.039*[#  59]
          +0.039*[#  71]+0.039*[#  72]+0.034*[#  80]+0.034*[#  88]+0.034*[# 108]
          +0.028*[#  47]+0.028*[#  48]+0.016*[#  64]+0.016*[#  65]+0.016*[#  77]
          +0.016*[#  78]+0.014*[#  60]+0.014*[#  61]+0.014*[#  73]+0.014*[#  74]
          +0.008*[#   8]+0.008*[#  22]+0.008*[#  35]+0.006*[#  21]+0.006*[#  34]
          +0.007*[#  51]+0.007*[#  52]+0.006*[#  97]+0.006*[#  98]+0.006*[# 105]
          +0.006*[# 106]+0.006*[#   9]+0.006*[#  13]+0.006*[#  25]+0.006*[#  38]
          +0.006*[#  12]+0.006*[#  26]+0.006*[#  39]+0.004*[#  62]+0.004*[#  75]
          +0.003*[#  86]+0.003*[#  57]+0.003*[#  70]+0.002*[#  93]+0.002*[# 101]
          +0.001*[#  55]+0.001*[#  56]+0.001*[#  68]+0.001*[#  69]+0.001*[#  79]
          +0.001*[#  87]+0.001*[# 107]+0.001*[#  96]+0.001*[# 104]+0.001*[#  84]
          +0.001*[#  92]+0.001*[# 100]
    |psi|^2 = 0.996
==== e(  38) =     0.48818 eV ==== 
     psi = 0.081*[#  45]+0.081*[#  46]+0.042*[#  80]+0.042*[#  88]+0.042*[# 108]
          +0.041*[#  58]+0.041*[#  59]+0.041*[#  71]+0.041*[#  72]+0.036*[#   6]
          +0.036*[#  20]+0.036*[#  33]+0.036*[#   7]+0.036*[#  19]+0.036*[#  32]
          +0.028*[#  47]+0.028*[#  48]+0.015*[#  64]+0.015*[#  65]+0.015*[#  77]
          +0.015*[#  78]+0.013*[#  60]+0.013*[#  61]+0.013*[#  73]+0.013*[#  74]
          +0.009*[#   8]+0.008*[#  22]+0.008*[#  35]+0.008*[#  97]+0.008*[#  98]
          +0.008*[# 105]+0.008*[# 106]+0.007*[#  21]+0.007*[#  34]+0.006*[#   9]
          +0.006*[#  51]+0.006*[#  52]+0.005*[#  12]+0.005*[#  13]+0.005*[#  25]
          +0.005*[#  26]+0.005*[#  38]+0.005*[#  39]+0.003*[#  86]+0.002*[#  93]
          +0.002*[# 101]+0.002*[#  79]+0.002*[#  87]+0.002*[# 107]+0.001*[#  55]
          +0.001*[#  56]+0.001*[#  68]+0.001*[#  69]+0.001*[#   5]+0.001*[#  18]
          +0.001*[#  31]+0.001*[#  82]+0.001*[#  83]+0.001*[#  84]+0.001*[#  91]
          +0.001*[#  92]+0.001*[#  99]+0.001*[# 100]
    |psi|^2 = 0.996
==== e(  39) =     0.85184 eV ==== 
     psi = 0.071*[#  60]+0.071*[#  61]+0.071*[#  73]+0.071*[#  74]+0.052*[#   5]
          +0.052*[#  18]+0.052*[#  31]+0.037*[#  47]+0.037*[#  48]+0.030*[#  58]
          +0.030*[#  59]+0.030*[#  71]+0.030*[#  72]+0.030*[#  45]+0.030*[#  46]
          +0.021*[#  51]+0.021*[#  52]+0.017*[#  64]+0.017*[#  65]+0.017*[#  77]
          +0.017*[#  78]+0.014*[#  10]+0.014*[#  23]+0.014*[#  36]+0.009*[#  84]
          +0.009*[#  92]+0.009*[# 100]+0.005*[#  11]+0.005*[#  24]+0.005*[#  37]
          +0.005*[#  97]+0.005*[#  98]+0.005*[# 105]+0.005*[# 106]+0.004*[#  62]
          +0.004*[#  75]+0.004*[#   7]+0.004*[#  80]+0.004*[#  88]+0.004*[# 108]
          +0.004*[#  19]+0.004*[#  32]+0.003*[#  57]+0.003*[#  70]+0.003*[#  20]
          +0.003*[#  33]+0.002*[#   9]+0.002*[#  49]+0.002*[#   6]+0.002*[#  86]
          +0.002*[#  21]+0.002*[#  34]+0.002*[#  42]+0.002*[#  43]+0.001*[#  55]
          +0.001*[#  56]+0.001*[#  68]+0.001*[#  69]+0.001*[#  93]+0.001*[# 101]
          +0.001*[#  13]
    |psi|^2 = 0.998
==== e(  40) =     0.90698 eV ==== 
     psi = 0.075*[#  60]+0.075*[#  61]+0.075*[#  73]+0.075*[#  74]+0.060*[#   5]
          +0.060*[#  18]+0.060*[#  31]+0.043*[#  47]+0.043*[#  48]+0.033*[#  58]
          +0.033*[#  59]+0.033*[#  71]+0.033*[#  72]+0.024*[#  45]+0.024*[#  46]
          +0.021*[#  51]+0.021*[#  52]+0.020*[#  64]+0.020*[#  65]+0.020*[#  77]
          +0.020*[#  78]+0.015*[#  10]+0.015*[#  23]+0.015*[#  36]+0.005*[#  11]
          +0.005*[#  24]+0.005*[#  37]+0.005*[#  84]+0.005*[#  92]+0.005*[# 100]
          +0.003*[#  97]+0.003*[#  98]+0.003*[# 105]+0.003*[# 106]+0.003*[#  80]
          +0.003*[#  88]+0.003*[# 108]+0.002*[#   6]+0.002*[#  20]+0.002*[#  33]
          +0.002*[#  42]+0.002*[#  43]+0.002*[#  55]+0.002*[#  56]+0.002*[#  68]
          +0.002*[#  69]+0.001*[#  19]+0.001*[#  32]+0.001*[#   7]
    |psi|^2 = 0.998
==== e(  41) =     1.06570 eV ==== 
     psi = 0.125*[#  57]+0.125*[#  70]+0.083*[#   7]+0.062*[#  19]+0.062*[#  32]
          +0.061*[#   9]+0.046*[#  21]+0.046*[#  34]+0.030*[#  62]+0.030*[#  75]
          +0.021*[#  20]+0.021*[#  33]+0.020*[#  13]+0.017*[#  22]+0.017*[#  35]
          +0.015*[#  25]+0.015*[#  38]+0.013*[#  96]+0.013*[# 104]+0.009*[#  95]
          +0.009*[# 103]+0.007*[#  86]+0.006*[#  60]+0.006*[#  61]+0.006*[#  73]
          +0.006*[#  74]+0.006*[#  63]+0.006*[#  76]+0.005*[#  26]+0.005*[#  39]
          +0.005*[#  93]+0.005*[# 101]+0.004*[#  47]+0.004*[#  48]+0.003*[#  58]
          +0.003*[#  59]+0.003*[#  71]+0.003*[#  72]+0.003*[#   5]+0.003*[#  18]
          +0.003*[#  31]+0.003*[#  80]+0.003*[#  84]+0.003*[#  88]+0.003*[#  92]
          +0.003*[# 100]+0.003*[# 108]+0.003*[#  45]+0.003*[#  46]+0.002*[#   4]
          +0.002*[#   8]+0.002*[#  51]+0.002*[#  52]+0.002*[#  16]+0.002*[#  29]
          +0.002*[#  97]+0.002*[#  98]+0.002*[# 105]+0.002*[# 106]+0.002*[#  94]
          +0.002*[# 102]+0.001*[#  54]+0.001*[#  64]+0.001*[#  65]+0.001*[#  67]
          +0.001*[#  77]+0.001*[#  78]
    |psi|^2 = 0.996
==== e(  42) =     1.44679 eV ==== 
     psi = 0.051*[#  44]+0.050*[#   6]+0.043*[#  84]+0.043*[#  92]+0.043*[# 100]
          +0.038*[#  20]+0.038*[#  33]+0.034*[#  47]+0.034*[#  48]+0.030*[#  45]
          +0.030*[#  46]+0.022*[#   8]+0.020*[#  60]+0.020*[#  61]+0.020*[#  73]
          +0.020*[#  74]+0.017*[#  22]+0.017*[#  35]+0.016*[#  97]+0.016*[#  98]
          +0.016*[# 105]+0.016*[# 106]+0.016*[#  49]+0.014*[#  58]+0.014*[#  59]
          +0.014*[#  71]+0.014*[#  72]+0.013*[#  19]+0.013*[#  32]+0.013*[#  64]
          +0.013*[#  65]+0.013*[#  77]+0.013*[#  78]+0.012*[#  51]+0.012*[#  52]
          +0.010*[#   5]+0.010*[#  18]+0.010*[#  31]+0.009*[#  12]+0.009*[#  50]
          +0.008*[#  57]+0.008*[#  70]+0.007*[#  62]+0.007*[#  75]+0.007*[#  26]
          +0.007*[#  39]+0.007*[#  21]+0.007*[#  34]+0.005*[#  85]+0.005*[#  94]
          +0.005*[# 102]+0.005*[#  93]+0.005*[# 101]+0.004*[#  86]+0.003*[#  10]
          +0.003*[#  23]+0.003*[#  36]+0.003*[#  25]+0.003*[#  38]+0.002*[#  80]
          +0.002*[#  83]+0.002*[#  88]+0.002*[#  91]+0.002*[#  99]+0.002*[# 108]
          +0.002*[#  81]+0.002*[#   9]+0.001*[#  90]+0.001*[# 110]
    |psi|^2 = 0.995
==== e(  43) =     1.51518 eV ==== 
     psi = 0.062*[#  84]+0.062*[#  92]+0.062*[# 100]+0.042*[#  47]+0.042*[#  48]
          +0.041*[#  60]+0.041*[#  61]+0.041*[#  73]+0.041*[#  74]+0.034*[#  45]
          +0.034*[#  46]+0.025*[#  97]+0.025*[#  98]+0.025*[# 105]+0.025*[# 106]
          +0.025*[#  51]+0.025*[#  52]+0.018*[#  64]+0.018*[#  65]+0.018*[#  77]
          +0.018*[#  78]+0.017*[#  58]+0.017*[#  59]+0.017*[#  71]+0.017*[#  72]
          +0.012*[#   5]+0.012*[#  18]+0.012*[#  31]+0.009*[#   9]+0.008*[#  21]
          +0.008*[#  34]+0.008*[#  86]+0.007*[#  93]+0.007*[# 101]+0.006*[#  22]
          +0.006*[#  35]+0.005*[#   8]+0.004*[#  80]+0.004*[#  88]+0.004*[# 108]
          +0.004*[#  10]+0.004*[#  23]+0.004*[#  36]+0.004*[#  94]+0.004*[# 102]
          +0.004*[#   6]+0.004*[#  57]+0.004*[#  70]+0.003*[#  20]+0.003*[#  33]
          +0.003*[#  83]+0.003*[#  85]+0.003*[#  91]+0.003*[#  99]+0.003*[#  44]
          +0.002*[#  13]+0.002*[#  19]+0.002*[#  25]+0.002*[#  32]+0.002*[#  38]
          +0.002*[#  42]+0.002*[#  43]+0.002*[#  26]+0.002*[#  39]+0.001*[#  12]
          +0.001*[#  55]+0.001*[#  56]+0.001*[#  68]+0.001*[#  69]+0.001*[#   7]
          
    |psi|^2 = 0.995
==== e(  44) =     1.56487 eV ==== 
     psi = 0.097*[#  44]+0.059*[#   6]+0.059*[#   8]+0.046*[#  22]+0.046*[#  35]
          +0.045*[#  20]+0.045*[#  33]+0.023*[#  84]+0.023*[#  92]+0.023*[# 100]
          +0.021*[#  21]+0.021*[#  34]+0.019*[#  47]+0.019*[#  48]+0.018*[#  57]
          +0.018*[#  70]+0.018*[#  50]+0.017*[#  60]+0.017*[#  61]+0.017*[#  73]
          +0.017*[#  74]+0.017*[#  12]+0.015*[#  19]+0.015*[#  32]+0.013*[#  26]
          +0.013*[#  39]+0.011*[#  45]+0.011*[#  46]+0.010*[#  49]+0.010*[#  97]
          +0.010*[#  98]+0.010*[# 105]+0.010*[# 106]+0.009*[#  51]+0.009*[#  52]
          +0.008*[#   9]+0.008*[#  64]+0.008*[#  65]+0.008*[#  77]+0.008*[#  78]
          +0.006*[#  62]+0.006*[#  75]+0.006*[#  85]+0.005*[#  25]+0.005*[#  38]
          +0.005*[#  58]+0.005*[#  59]+0.005*[#  71]+0.005*[#  72]+0.005*[#  94]
          +0.005*[# 102]+0.004*[#  93]+0.004*[# 101]+0.004*[#  86]+0.003*[#   5]
          +0.003*[#  18]+0.003*[#  31]+0.003*[#  81]+0.002*[#  10]+0.002*[#  23]
          +0.002*[#  36]+0.002*[#  90]+0.002*[# 110]+0.002*[#  80]+0.002*[#  88]
          +0.002*[# 108]+0.002*[#  63]+0.002*[#  76]+0.002*[#   3]+0.001*[#  13]
          +0.001*[#  17]+0.001*[#  30]+0.001*[#  41]+0.001*[#  83]
    |psi|^2 = 0.996
==== e(  45) =     2.31506 eV ==== 
     psi = 0.115*[#  60]+0.115*[#  61]+0.115*[#  73]+0.115*[#  74]+0.098*[#  47]
          +0.098*[#  48]+0.027*[#  82]+0.026*[#  89]+0.026*[# 109]+0.025*[#  90]
          +0.025*[# 110]+0.025*[#  81]+0.016*[#  86]+0.016*[#  93]+0.016*[# 101]
          +0.015*[#  94]+0.015*[# 102]+0.015*[#  85]+0.008*[#   7]+0.007*[#  19]
          +0.007*[#  32]+0.006*[#   8]+0.005*[#  22]+0.005*[#  35]+0.004*[#  20]
          +0.004*[#  33]+0.003*[#  21]+0.003*[#  34]+0.003*[#   9]+0.003*[#  58]
          +0.003*[#  59]+0.003*[#  71]+0.003*[#  72]+0.002*[#   6]+0.001*[#   5]
          +0.001*[#  18]+0.001*[#  31]+0.001*[#  84]+0.001*[#  92]+0.001*[# 100]
          
    |psi|^2 = 0.997
==== e(  46) =     2.40888 eV ==== 
     psi = 0.112*[#  60]+0.112*[#  61]+0.112*[#  73]+0.112*[#  74]+0.098*[#  47]
          +0.098*[#  48]+0.029*[#  82]+0.028*[#  89]+0.028*[# 109]+0.027*[#  90]
          +0.027*[# 110]+0.027*[#  81]+0.018*[#  86]+0.017*[#  93]+0.017*[# 101]
          +0.017*[#  94]+0.017*[# 102]+0.017*[#  85]+0.008*[#   7]+0.006*[#  19]
          +0.006*[#  32]+0.006*[#   8]+0.005*[#  22]+0.005*[#  35]+0.004*[#  20]
          +0.003*[#  21]+0.004*[#  33]+0.003*[#  34]+0.003*[#  58]+0.003*[#  59]
          +0.003*[#  71]+0.003*[#  72]+0.003*[#   9]+0.002*[#   6]
    |psi|^2 = 0.997
==== e(  47) =     3.05418 eV ==== 
     psi = 0.203*[#   5]+0.203*[#  18]+0.203*[#  31]+0.073*[#  44]+0.052*[#  57]
          +0.052*[#  70]+0.017*[#  63]+0.017*[#  76]+0.015*[#  50]+0.010*[#  58]
          +0.010*[#  59]+0.010*[#  71]+0.010*[#  72]+0.008*[#  45]+0.008*[#  46]
          +0.005*[#   8]+0.005*[#   9]+0.005*[#  10]+0.005*[#  21]+0.005*[#  22]
          +0.005*[#  34]+0.005*[#  35]+0.005*[#  23]+0.005*[#  36]+0.004*[#  11]
          +0.004*[#  24]+0.004*[#  37]+0.003*[#  96]+0.003*[# 104]+0.003*[#  81]
          +0.002*[#  90]+0.002*[# 110]+0.002*[#  62]+0.002*[#  75]+0.002*[#  47]
          +0.002*[#  48]+0.002*[#  89]+0.002*[# 109]+0.001*[#  60]+0.001*[#  61]
          +0.001*[#  73]+0.001*[#  74]+0.001*[#  80]+0.001*[#  82]+0.001*[#  88]
          +0.001*[# 108]
    |psi|^2 = 0.995
==== e(  48) =     3.23187 eV ==== 
     psi = 0.090*[#   9]+0.082*[#  21]+0.082*[#  34]+0.071*[#   6]+0.068*[#  20]
          +0.068*[#  33]+0.064*[#  22]+0.064*[#  35]+0.063*[#  19]+0.063*[#  32]
          +0.060*[#   7]+0.056*[#   8]+0.015*[#  12]+0.015*[#  26]+0.015*[#  39]
          +0.014*[#  25]+0.014*[#  38]+0.013*[#  13]+0.004*[#  44]+0.003*[#   5]
          +0.003*[#  18]+0.003*[#  31]+0.003*[#  84]+0.003*[#  92]+0.003*[# 100]
          +0.003*[#  58]+0.003*[#  59]+0.003*[#  71]+0.003*[#  72]+0.002*[#  49]
          +0.002*[#  47]+0.002*[#  48]+0.002*[#  62]+0.002*[#  75]+0.001*[#  60]
          +0.001*[#  61]+0.001*[#  73]+0.001*[#  74]+0.001*[#  97]+0.001*[#  98]
[...]
          +0.006*[#  11]+0.006*[#  24]+0.006*[#  37]+0.005*[#  60]+0.005*[#  61]
          +0.005*[#  73]+0.005*[#  74]+0.004*[#  64]+0.004*[#  65]+0.004*[#  77]
          +0.004*[#  78]+0.003*[#   7]+0.003*[#  63]+0.003*[#  76]+0.003*[#  62]
          +0.003*[#  75]+0.002*[#   4]+0.002*[#  16]+0.002*[#  29]+0.002*[#   1]
          +0.002*[#  14]+0.002*[#  17]+0.002*[#  27]+0.002*[#  85]+0.002*[#  30]
          +0.002*[#  95]+0.002*[# 103]+0.002*[#   3]+0.002*[#  51]+0.002*[#  52]
          +0.002*[#  80]+0.002*[#  88]+0.002*[#  94]+0.002*[# 102]+0.002*[# 108]
          
    |psi|^2 = 0.995
==== e(  54) =     4.15969 eV ==== 
     psi = 0.067*[#  13]+0.062*[#   6]+0.054*[#  25]+0.054*[#  38]+0.047*[#  20]
          +0.047*[#  33]+0.034*[#  58]+0.034*[#  59]+0.034*[#  71]+0.034*[#  72]
          +0.028*[#  26]+0.028*[#  39]+0.025*[#  45]+0.025*[#  46]+0.022*[#   9]
          +0.022*[#  21]+0.022*[#  34]+0.022*[#  22]+0.022*[#  35]+0.022*[#   8]
          +0.019*[#  19]+0.019*[#  32]+0.016*[#  10]+0.015*[#  12]+0.016*[#  23]
          +0.016*[#  36]+0.014*[#   5]+0.014*[#  18]+0.014*[#  31]+0.012*[#  57]
          +0.012*[#  70]+0.009*[#  96]+0.009*[# 104]+0.005*[#  63]+0.005*[#  76]
          +0.004*[#   7]+0.004*[#  11]+0.004*[#  24]+0.004*[#  37]+0.004*[#  47]
          +0.004*[#  48]+0.003*[#   4]+0.002*[#  16]+0.002*[#  29]+0.002*[#  85]
          +0.002*[#  94]+0.002*[# 102]+0.002*[#  51]+0.002*[#  52]+0.002*[#  62]
          +0.002*[#  75]+0.002*[#  80]+0.002*[#  88]+0.002*[# 108]+0.002*[#  93]
          +0.002*[# 101]+0.002*[#   1]+0.002*[#  14]+0.002*[#  27]+0.002*[#  60]
          +0.002*[#  61]+0.002*[#  73]+0.002*[#  74]+0.002*[#  81]+0.002*[#  86]
          +0.001*[#  90]+0.001*[#  95]+0.001*[# 103]+0.001*[# 110]+0.001*[#  17]
          +0.001*[#  30]
    |psi|^2 = 0.995
==== e(  55) =     4.37856 eV ==== 
     psi = 0.116*[#  45]+0.116*[#  46]+0.086*[#   6]+0.071*[#  20]+0.071*[#  33]
          +0.040*[#  19]+0.040*[#  32]+0.033*[#  47]+0.033*[#  48]+0.025*[#   7]
          +0.021*[#  96]+0.021*[# 104]+0.016*[#  85]+0.014*[#  58]+0.014*[#  59]
          +0.014*[#  71]+0.014*[#  72]+0.013*[#  94]+0.013*[# 102]+0.009*[#  81]
          +0.008*[#   9]+0.008*[#  90]+0.008*[# 110]+0.007*[#  80]+0.007*[#  88]
          +0.007*[# 108]+0.006*[#  21]+0.006*[#  34]+0.006*[#  84]+0.006*[#  92]
          +0.006*[# 100]+0.006*[#  93]+0.006*[# 101]+0.006*[#  64]+0.006*[#  65]
          +0.006*[#  77]+0.006*[#  78]+0.005*[#  89]+0.005*[# 109]+0.005*[#  12]
          +0.004*[#  26]+0.004*[#  39]+0.004*[#  82]+0.004*[#  57]+0.004*[#  70]
          +0.004*[#  44]+0.003*[#  25]+0.003*[#  38]+0.003*[#  83]+0.003*[#  91]
          +0.003*[#  99]+0.003*[#   5]+0.003*[#  13]+0.003*[#  18]+0.003*[#  22]
          +0.003*[#  31]+0.003*[#  35]+0.003*[#  86]+0.002*[#  60]+0.002*[#  61]
          +0.002*[#  73]+0.002*[#  74]+0.002*[#  95]+0.002*[# 103]+0.002*[#  62]
          +0.002*[#  75]+0.001*[#  10]+0.001*[#  23]+0.001*[#  36]+0.001*[#  63]
          +0.001*[#  76]+0.001*[#  79]+0.001*[#  87]+0.001*[# 107]
    |psi|^2 = 0.995
==== e(  56) =     4.39990 eV ==== 
     psi = 0.093*[#  45]+0.093*[#  46]+0.048*[#   6]+0.045*[#  20]+0.045*[#  33]
          +0.037*[#  19]+0.037*[#  32]+0.033*[#   7]+0.032*[#  47]+0.032*[#  48]
          +0.029*[#  96]+0.029*[# 104]+0.019*[#  13]+0.018*[#   9]+0.018*[#  25]
          +0.018*[#  38]+0.014*[#  26]+0.014*[#  39]+0.014*[#  21]+0.014*[#  34]
          +0.013*[#  12]+0.012*[#  85]+0.010*[#  84]+0.010*[#  92]+0.010*[# 100]
          +0.009*[#  94]+0.009*[# 102]+0.009*[#  80]+0.009*[#  88]+0.009*[# 108]
          +0.008*[#  58]+0.008*[#  59]+0.008*[#  71]+0.008*[#  72]+0.007*[#   5]
          +0.007*[#  18]+0.007*[#  31]+0.007*[#  81]+0.006*[#  10]+0.006*[#  23]
          +0.006*[#  36]+0.006*[#  90]+0.006*[# 110]+0.006*[#  22]+0.006*[#  35]
          +0.006*[#  64]+0.006*[#  65]+0.006*[#  77]+0.006*[#  78]+0.004*[#  95]
          +0.004*[# 103]+0.004*[#  89]+0.004*[#  93]+0.004*[# 101]+0.004*[# 109]
          +0.004*[#  60]+0.004*[#  61]+0.004*[#  73]+0.004*[#  74]+0.004*[#  63]
          +0.004*[#  76]+0.003*[#  82]+0.003*[#  83]+0.003*[#  91]+0.003*[#  99]
          +0.002*[#  57]+0.002*[#  70]+0.002*[#  86]+0.001*[#   8]+0.001*[#  62]
          +0.001*[#  75]+0.001*[#  51]+0.001*[#  52]
    |psi|^2 = 0.995
==== e(  57) =     4.94283 eV ==== 
     psi = 0.101*[#  44]+0.061*[#  84]+0.061*[#  92]+0.061*[# 100]+0.040*[#  12]
          +0.030*[#  26]+0.030*[#  39]+0.029*[#   5]+0.029*[#  18]+0.029*[#  31]
          +0.028*[#  50]+0.022*[#  58]+0.022*[#  59]+0.022*[#  71]+0.022*[#  72]
          +0.021*[#   8]+0.019*[#  80]+0.019*[#  88]+0.019*[# 108]+0.018*[#  64]
          +0.018*[#  65]+0.018*[#  77]+0.018*[#  78]+0.016*[#  22]+0.016*[#  35]
          +0.016*[#  60]+0.016*[#  61]+0.016*[#  73]+0.016*[#  74]+0.011*[#  25]
          +0.011*[#  38]+0.011*[#  85]+0.008*[#  94]+0.008*[# 102]+0.007*[#  10]
          +0.007*[#  23]+0.007*[#  36]+0.006*[#  49]+0.006*[#  21]+0.006*[#  34]
          +0.003*[#  83]+0.003*[#  91]+0.003*[#  99]+0.003*[#  47]+0.003*[#  48]
          +0.003*[#  93]+0.003*[# 101]+0.002*[#   3]+0.002*[#   6]+0.002*[#   7]
          +0.002*[#  13]+0.002*[#  19]+0.002*[#  20]+0.002*[#  32]+0.002*[#  33]
          +0.002*[#  40]+0.002*[#  41]+0.002*[#  96]+0.002*[# 104]+0.002*[#   1]
          +0.002*[#  14]+0.002*[#  27]+0.001*[#  17]+0.001*[#  30]+0.001*[#  97]
          +0.001*[#  98]+0.001*[# 105]+0.001*[# 106]+0.001*[#  45]+0.001*[#  46]
          +0.001*[#  81]
    |psi|^2 = 0.989
==== e(  58) =     6.03790 eV ==== 
     psi = 0.126*[#  60]+0.126*[#  61]+0.126*[#  73]+0.126*[#  74]+0.055*[#  47]
          +0.055*[#  48]+0.029*[#   9]+0.025*[#  21]+0.025*[#  34]+0.021*[#   7]
          +0.020*[#  58]+0.020*[#  59]+0.020*[#  71]+0.020*[#  72]+0.017*[#  19]
          +0.017*[#  22]+0.017*[#  32]+0.017*[#  35]+0.015*[#  45]+0.015*[#  46]
          +0.013*[#   8]+0.007*[#  20]+0.007*[#  33]+0.004*[#  96]+0.004*[# 104]
          +0.004*[#  85]+0.003*[#  94]+0.003*[# 102]+0.003*[#  97]+0.003*[#  98]
          +0.003*[# 105]+0.003*[# 106]+0.003*[#   6]+0.002*[#  51]+0.002*[#  52]
          +0.002*[#  93]+0.002*[# 101]+0.002*[#  64]+0.002*[#  65]+0.002*[#  77]
          +0.002*[#  78]+0.002*[#  86]
    |psi|^2 = 0.994
==== e(  59) =     6.20718 eV ==== 
     psi = 0.134*[#   5]+0.134*[#  18]+0.134*[#  31]+0.057*[#  57]+0.057*[#  70]
          +0.042*[#  11]+0.042*[#  24]+0.042*[#  37]+0.028*[#  45]+0.028*[#  46]
          +0.020*[#  96]+0.020*[# 104]+0.019*[#   9]+0.018*[#  58]+0.018*[#  59]
          +0.018*[#  71]+0.018*[#  72]+0.016*[#  21]+0.016*[#  34]+0.012*[#  47]
          +0.012*[#  48]+0.011*[#  22]+0.011*[#  35]+0.008*[#   8]+0.005*[#  10]
          +0.005*[#  23]+0.005*[#  36]+0.004*[#  84]+0.004*[#  92]+0.004*[# 100]
          +0.003*[#  60]+0.003*[#  61]+0.003*[#  73]+0.003*[#  74]+0.003*[#  44]
          +0.002*[#   7]+0.002*[#  19]+0.002*[#  32]+0.002*[#  20]+0.002*[#  33]
          +0.001*[#   6]+0.001*[#  12]+0.001*[#  26]+0.001*[#  39]+0.001*[#  51]
          +0.001*[#  52]+0.001*[#  13]+0.001*[#  25]+0.001*[#  38]+0.001*[#  95]
          +0.001*[# 103]
    |psi|^2 = 0.992
==== e(  60) =     6.39738 eV ==== 
     psi = 0.067*[#  60]+0.067*[#  61]+0.067*[#  73]+0.067*[#  74]+0.060*[#  47]
          +0.060*[#  48]+0.050*[#   5]+0.050*[#  18]+0.050*[#  31]+0.030*[#   9]
          +0.026*[#  58]+0.026*[#  59]+0.026*[#  71]+0.026*[#  72]+0.025*[#  57]
          +0.025*[#  70]+0.023*[#  21]+0.023*[#  34]+0.017*[#   7]+0.014*[#  11]
          +0.014*[#  24]+0.014*[#  37]+0.014*[#  19]+0.014*[#  32]+0.011*[#  96]
          +0.011*[# 104]+0.009*[#  22]+0.009*[#  35]+0.009*[#  45]+0.009*[#  46]
          +0.007*[#  20]+0.007*[#  33]+0.003*[#   6]+0.003*[#  51]+0.003*[#  52]
          +0.003*[#  97]+0.003*[#  98]+0.003*[# 105]+0.003*[# 106]+0.002*[#  10]
          +0.002*[#  23]+0.002*[#  36]+0.002*[#  64]+0.002*[#  65]+0.002*[#  77]
          +0.002*[#  78]+0.002*[#  95]+0.002*[# 103]+0.002*[#   8]+0.002*[#  85]
          +0.001*[#  94]+0.001*[# 102]+0.001*[#  13]+0.001*[#  79]+0.001*[#  87]
          +0.001*[#  84]+0.001*[#  92]+0.001*[#  93]+0.001*[# 100]+0.001*[# 101]
          +0.001*[# 107]
    |psi|^2 = 0.992
==== e(  61) =     6.46265 eV ==== 
     psi = 0.092*[#   5]+0.092*[#  18]+0.092*[#  31]+0.046*[#  60]+0.046*[#  61]
          +0.046*[#  73]+0.046*[#  74]+0.044*[#  45]+0.044*[#  46]+0.038*[#  57]
          +0.038*[#  70]+0.024*[#  47]+0.024*[#  48]+0.023*[#  11]+0.023*[#  24]
          +0.023*[#  37]+0.019*[#   8]+0.017*[#  22]+0.017*[#  35]+0.012*[#   6]
          +0.012*[#  20]+0.012*[#  33]+0.012*[#  21]+0.012*[#  34]+0.012*[#  19]
          +0.012*[#  32]+0.012*[#   7]+0.010*[#   9]+0.008*[#  96]+0.008*[# 104]
          +0.007*[#  58]+0.007*[#  59]+0.007*[#  71]+0.007*[#  72]+0.002*[#  10]
          +0.002*[#  23]+0.002*[#  36]+0.002*[#  64]+0.002*[#  65]+0.002*[#  77]
          +0.002*[#  78]+0.002*[#  85]+0.002*[#  82]+0.002*[#  94]+0.002*[# 102]
          +0.002*[#  51]+0.002*[#  52]+0.001*[#  89]+0.001*[#  93]+0.001*[#  97]
          +0.001*[#  98]+0.001*[# 101]+0.001*[# 105]+0.001*[# 106]+0.001*[# 109]
          
    |psi|^2 = 0.993
==== e(  62) =     6.57019 eV ==== 
     psi = 0.094*[#  47]+0.094*[#  48]+0.080*[#  60]+0.080*[#  61]+0.080*[#  73]
          +0.080*[#  74]+0.039*[#  45]+0.039*[#  46]+0.027*[#   8]+0.023*[#  22]
          +0.023*[#  35]+0.022*[#   6]+0.019*[#  20]+0.019*[#  33]+0.016*[#  58]
          +0.016*[#  59]+0.016*[#  71]+0.016*[#  72]+0.015*[#  21]+0.015*[#  34]
          +0.014*[#  19]+0.014*[#  32]+0.012*[#   9]+0.011*[#   7]+0.008*[#  85]
          +0.007*[#  44]+0.006*[#  51]+0.006*[#  52]+0.006*[#  94]+0.006*[# 102]
          +0.006*[#   5]+0.006*[#  18]+0.006*[#  31]+0.006*[#  96]+0.006*[# 104]
          +0.003*[#  11]+0.003*[#  24]+0.003*[#  37]+0.003*[#  93]+0.003*[# 101]
          +0.002*[#  97]+0.002*[#  98]+0.002*[# 105]+0.002*[# 106]+0.002*[#  79]
          +0.002*[#  80]+0.002*[#  87]+0.002*[#  88]+0.002*[# 107]+0.002*[# 108]
          +0.002*[#  82]+0.002*[#  83]+0.002*[#  86]+0.002*[#  89]+0.002*[#  91]
          +0.002*[#  99]+0.002*[# 109]+0.001*[#  12]+0.001*[#  90]+0.001*[# 110]
          +0.001*[#  26]+0.001*[#  39]
    |psi|^2 = 0.994
==== e(  63) =     6.69058 eV ==== 
     psi = 0.117*[#   5]+0.117*[#  18]+0.117*[#  31]+0.049*[#  11]+0.049*[#  24]
          +0.049*[#  37]+0.048*[#  44]+0.041*[#  58]+0.041*[#  59]+0.041*[#  71]
          +0.041*[#  72]+0.021*[#   8]+0.017*[#  22]+0.017*[#  35]+0.014*[#  47]
          +0.014*[#  48]+0.013*[#  84]+0.013*[#  92]+0.013*[# 100]+0.008*[#  60]
          +0.008*[#  61]+0.008*[#  73]+0.008*[#  74]+0.008*[#  21]+0.008*[#  34]
          +0.007*[#  10]+0.007*[#  23]+0.007*[#  36]+0.006*[#  57]+0.006*[#  70]
          +0.005*[#  12]+0.005*[#   6]+0.004*[#  49]+0.004*[#  26]+0.004*[#  39]
          +0.004*[#  50]+0.003*[#   9]+0.003*[#  20]+0.003*[#  33]+0.003*[#  96]
          +0.003*[# 104]+0.002*[#  80]+0.002*[#  88]+0.002*[# 108]+0.002*[#  45]
          +0.002*[#  46]+0.002*[#  64]+0.002*[#  65]+0.002*[#  77]+0.002*[#  78]
          +0.001*[#  25]+0.001*[#  38]+0.001*[#  19]+0.001*[#  32]
    |psi|^2 = 0.991
==== e(  64) =     7.26361 eV ==== 
     psi = 0.114*[#   8]+0.111*[#  22]+0.111*[#  35]+0.105*[#  21]+0.105*[#  34]
          +0.101*[#   9]+0.032*[#  60]+0.032*[#  61]+0.032*[#  73]+0.032*[#  74]
          +0.031*[#  47]+0.031*[#  48]+0.027*[#   6]+0.024*[#  20]+0.024*[#  33]
          +0.019*[#  19]+0.019*[#  32]+0.017*[#   7]+0.002*[#  12]+0.002*[#  13]
          +0.002*[#  25]+0.002*[#  26]+0.002*[#  38]+0.002*[#  39]
    |psi|^2 = 0.996
==== e(  65) =     7.67952 eV ==== 
     psi = 0.078*[#   8]+0.066*[#  22]+0.066*[#  35]+0.064*[#   6]+0.061*[#  47]
          +0.061*[#  48]+0.054*[#  20]+0.054*[#  33]+0.048*[#  60]+0.048*[#  61]
          +0.048*[#  73]+0.048*[#  74]+0.040*[#  21]+0.040*[#  34]+0.034*[#  19]
          +0.034*[#  32]+0.027*[#   9]+0.023*[#   7]+0.013*[#  45]+0.013*[#  46]
          +0.006*[#  58]+0.006*[#  59]+0.006*[#  71]+0.006*[#  72]+0.003*[#   5]
          +0.003*[#  18]+0.003*[#  31]+0.003*[#  44]+0.003*[#  12]+0.002*[#  26]
          +0.002*[#  39]+0.002*[#  51]+0.002*[#  52]+0.002*[#  25]+0.002*[#  38]
          +0.001*[#  11]+0.001*[#  13]+0.001*[#  24]+0.001*[#  37]+0.001*[#  84]
          +0.001*[#  92]+0.001*[# 100]
    |psi|^2 = 0.996
==== e(  66) =     7.69166 eV ==== 
     psi = 0.116*[#   9]+0.090*[#  21]+0.090*[#  34]+0.054*[#  60]+0.054*[#  61]
          +0.054*[#  73]+0.054*[#  74]+0.045*[#   7]+0.041*[#  19]+0.041*[#  32]
          +0.038*[#  22]+0.038*[#  35]+0.033*[#  20]+0.033*[#  33]+0.029*[#   6]
          +0.018*[#  47]+0.018*[#  48]+0.012*[#   8]+0.010*[#  45]+0.010*[#  46]
          +0.007*[#  57]+0.007*[#  70]+0.007*[#  58]+0.007*[#  59]+0.007*[#  71]
          +0.007*[#  72]+0.004*[#  84]+0.004*[#  92]+0.004*[# 100]+0.003*[#  13]
          +0.003*[#  80]+0.003*[#  88]+0.003*[# 108]+0.002*[#  63]+0.002*[#  76]
          +0.002*[#   5]+0.002*[#  18]+0.002*[#  25]+0.002*[#  31]+0.002*[#  38]
          +0.002*[#  96]+0.002*[# 104]+0.002*[#  62]+0.002*[#  75]+0.002*[#  95]
          +0.002*[# 103]+0.002*[#  11]+0.002*[#  24]+0.002*[#  37]+0.001*[#  26]
          +0.001*[#  39]+0.001*[#  64]+0.001*[#  65]+0.001*[#  77]+0.001*[#  78]
          
    |psi|^2 = 0.995
==== e(  67) =     7.93807 eV ==== 
     psi = 0.070*[#   8]+0.058*[#  22]+0.058*[#  35]+0.054*[#   6]+0.052*[#  20]
          +0.052*[#  33]+0.049*[#  19]+0.049*[#  32]+0.047*[#   7]+0.045*[#  45]
          +0.045*[#  46]+0.035*[#  21]+0.035*[#  34]+0.031*[#  58]+0.031*[#  59]
          +0.031*[#  71]+0.031*[#  72]+0.023*[#   9]+0.015*[#  60]+0.015*[#  61]
          +0.015*[#  73]+0.015*[#  74]+0.009*[#  57]+0.009*[#  70]+0.005*[#  84]
          +0.005*[#  92]+0.005*[# 100]+0.005*[#  63]+0.005*[#  76]+0.004*[#  80]
          +0.004*[#  88]+0.004*[# 108]+0.004*[#  47]+0.004*[#  48]+0.004*[#  62]
          +0.004*[#  75]+0.004*[#  96]+0.004*[# 104]+0.003*[#  95]+0.003*[# 103]
          +0.003*[#  13]+0.002*[#  25]+0.002*[#  38]+0.002*[#  83]+0.002*[#  86]
          +0.002*[#  91]+0.002*[#  93]+0.002*[#  99]+0.002*[# 101]+0.002*[#  64]
          +0.002*[#  65]+0.002*[#  77]+0.002*[#  78]+0.002*[#  85]+0.002*[#  94]
          +0.002*[# 102]+0.002*[#  11]+0.002*[#  24]+0.002*[#  37]+0.001*[#  10]
          +0.001*[#  23]+0.001*[#  36]+0.001*[#  79]+0.001*[#  87]+0.001*[# 107]
          +0.001*[#  26]+0.001*[#  39]
    |psi|^2 = 0.991
==== e(  68) =     7.95473 eV ==== 
     psi = 0.088*[#   8]+0.071*[#  22]+0.071*[#  35]+0.038*[#  21]+0.038*[#  34]
          +0.038*[#  57]+0.038*[#  70]+0.027*[#  96]+0.027*[# 104]+0.027*[#  45]
          +0.027*[#  46]+0.024*[#   6]+0.023*[#  20]+0.023*[#  33]+0.022*[#   9]
          +0.020*[#  19]+0.020*[#  32]+0.018*[#   7]+0.015*[#  63]+0.015*[#  76]
          +0.013*[#  80]+0.013*[#  88]+0.013*[# 108]+0.013*[#  62]+0.013*[#  75]
          +0.012*[#  11]+0.012*[#  24]+0.012*[#  37]+0.012*[#  84]+0.012*[#  92]
          +0.012*[# 100]+0.011*[#  58]+0.011*[#  59]+0.011*[#  71]+0.011*[#  72]
          +0.007*[#  95]+0.007*[# 103]+0.006*[#  60]+0.006*[#  61]+0.006*[#  73]
          +0.006*[#  74]+0.005*[#  13]+0.005*[#  10]+0.005*[#  23]+0.005*[#  36]
          +0.004*[#  83]+0.004*[#  91]+0.004*[#  99]+0.004*[#  25]+0.004*[#  38]
          +0.003*[#  64]+0.003*[#  65]+0.003*[#  77]+0.003*[#  78]+0.002*[#  86]
          +0.002*[#  79]+0.002*[#  87]+0.002*[# 107]+0.002*[#   5]+0.002*[#  18]
          +0.002*[#  31]+0.002*[#  93]+0.002*[# 101]+0.002*[#  51]+0.002*[#  52]
          +0.002*[#  26]+0.002*[#  39]+0.001*[#  94]+0.001*[# 102]+0.001*[#  47]
          +0.001*[#  48]
    |psi|^2 = 0.981

Lowdin Charges: 

     Atom #   1: total charge =  14.9941, s =  2.4371, 
     Atom #   1: total charge =  14.9941, p =  7.0584, pz=  2.2884, px=  2.3827, py=  2.3872, 
     Atom #   1: total charge =  14.9941, d =  5.4987, dz2=  1.0253, dxz=  1.1212, dyz=  1.1324, dx2-y2=  1.1101, dxy=  1.1097, 
     Atom #   2: total charge =  14.9941, s =  2.4371, 
     Atom #   2: total charge =  14.9941, p =  7.0584, pz=  2.2884, px=  2.3861, py=  2.3838, 
     Atom #   2: total charge =  14.9941, d =  5.4987, dz2=  1.0253, dxz=  1.1296, dyz=  1.1240, dx2-y2=  1.1098, dxy=  1.1100, 
     Atom #   3: total charge =  14.9941, s =  2.4371, 
     Atom #   3: total charge =  14.9941, p =  7.0584, pz=  2.2884, px=  2.3861, py=  2.3838, 
     Atom #   3: total charge =  14.9941, d =  5.4987, dz2=  1.0253, dxz=  1.1296, dyz=  1.1240, dx2-y2=  1.1098, dxy=  1.1100, 
     Atom #   4: total charge =  14.9622, s =  2.3306, 
     Atom #   4: total charge =  14.9622, p =  7.0618, pz=  2.3211, px=  2.3704, py=  2.3704, 
     Atom #   4: total charge =  14.9622, d =  5.5697, dz2=  1.2554, dxz=  1.0428, dyz=  1.0428, dx2-y2=  1.1143, dxy=  1.1143, 
     Atom #   5: total charge =  14.9350, s =  2.3470, 
     Atom #   5: total charge =  14.9350, p =  7.0443, pz=  2.3004, px=  2.3720, py=  2.3720, 
     Atom #   5: total charge =  14.9350, d =  5.5437, dz2=  1.1147, dxz=  1.1037, dyz=  1.1037, dx2-y2=  1.1108, dxy=  1.1108, 
     Atom #   6: total charge =  14.9350, s =  2.3470, 
     Atom #   6: total charge =  14.9350, p =  7.0443, pz=  2.3004, px=  2.3720, py=  2.3720, 
     Atom #   6: total charge =  14.9350, d =  5.5437, dz2=  1.1147, dxz=  1.1037, dyz=  1.1037, dx2-y2=  1.1108, dxy=  1.1108, 
     Atom #   7: total charge =   3.0339, s =  0.5316, 
     Atom #   7: total charge =   3.0339, p =  2.5023, pz=  0.7703, px=  0.8853, py=  0.8467, 
     Atom #   7: total charge =   3.0339, d =  0.0000, dz2=  0.0000, dxz=  0.0000, dyz=  0.0000, dx2-y2=  0.0000, dxy=  0.0000, 
     Atom #   8: total charge =   2.9840, s =  0.5441, 
     Atom #   8: total charge =   2.9840, p =  2.4398, pz=  0.7301, px=  0.8341, py=  0.8756, 
     Atom #   8: total charge =   2.9840, d =  0.0000, dz2=  0.0000, dxz=  0.0000, dyz=  0.0000, dx2-y2=  0.0000, dxy=  0.0000, 
     Atom #   9: total charge =   3.0339, s =  0.5316, 
     Atom #   9: total charge =   3.0339, p =  2.5023, pz=  0.7703, px=  0.8564, py=  0.8757, 
     Atom #   9: total charge =   3.0339, d =  0.0000, dz2=  0.0000, dxz=  0.0000, dyz=  0.0000, dx2-y2=  0.0000, dxy=  0.0000, 
     Atom #  10: total charge =   2.9840, s =  0.5441, 
     Atom #  10: total charge =   2.9840, p =  2.4398, pz=  0.7301, px=  0.8652, py=  0.8445, 
     Atom #  10: total charge =   2.9840, d =  0.0000, dz2=  0.0000, dxz=  0.0000, dyz=  0.0000, dx2-y2=  0.0000, dxy=  0.0000, 
     Atom #  11: total charge =   2.8516, s =  0.5385, 
     Atom #  11: total charge =   2.8516, p =  2.3131, pz=  0.7892, px=  0.7620, py=  0.7620, 
     Atom #  11: total charge =   2.8516, d =  0.0000, dz2=  0.0000, dxz=  0.0000, dyz=  0.0000, dx2-y2=  0.0000, dxy=  0.0000, 
     Atom #  12: total charge =   2.9840, s =  0.5441, 
     Atom #  12: total charge =   2.9840, p =  2.4398, pz=  0.7301, px=  0.8652, py=  0.8445, 
     Atom #  12: total charge =   2.9840, d =  0.0000, dz2=  0.0000, dxz=  0.0000, dyz=  0.0000, dx2-y2=  0.0000, dxy=  0.0000, 
     Atom #  13: total charge =   2.8516, s =  0.5385, 
     Atom #  13: total charge =   2.8516, p =  2.3131, pz=  0.7892, px=  0.7620, py=  0.7620, 
     Atom #  13: total charge =   2.8516, d =  0.0000, dz2=  0.0000, dxz=  0.0000, dyz=  0.0000, dx2-y2=  0.0000, dxy=  0.0000, 
     Atom #  14: total charge =   3.0339, s =  0.5316, 
     Atom #  14: total charge =   3.0339, p =  2.5023, pz=  0.7703, px=  0.8564, py=  0.8757, 
     Atom #  14: total charge =   3.0339, d =  0.0000, dz2=  0.0000, dxz=  0.0000, dyz=  0.0000, dx2-y2=  0.0000, dxy=  0.0000, 
     Spilling Parameter:   0.0038

     PROJWFC      :     37.07s CPU     42.13s WALL


   This run was terminated on:  21: 1: 4  30Jul2025            

=------------------------------------------------------------------------------=
   JOB DONE.
=------------------------------------------------------------------------------=
