
     Program PWSCF v.7.2 starts on  8Jul2025 at 11:29:38 

     This program is part of the open-source Quantum ESPRESSO suite
     for quantum simulation of materials; please cite
         "P. Giannozzi et al., J. Phys.:Condens. Matter 21 395502 (2009);
         "P. Giannozzi et al., J. Phys.:Condens. Matter 29 465901 (2017);
         "P. Giannozzi et al., J. Chem. Phys. 152 154105 (2020);
          URL http://www.quantum-espresso.org", 
     in publications or presentations arising from this work. More details at
     http://www.quantum-espresso.org/quote

     Parallel version (MPI & OpenMP), running on       2 processor cores
     Number of MPI processes:                 1
     Threads/MPI process:                     2

     MPI processes distributed on     1 nodes
     391 MiB available memory on the printing compute node when the environment starts

     Reading input from alpha.nscf.in

     Current dimensions of program PWSCF are:
     Max number of different atomic species (ntypx) = 10
     Max number of k-points (npk) =  40000
     Max angular momentum in pseudopotentials (lmaxx) =  4

     Atomic positions and unit cell read from directory:
     ../../outdir/borophene.save/
     Atomic positions from file used, from input discarded

     file B.pbesol-n-rrkjus_psl.1.0.0.UPF: wavefunction(s)  2S renormalized

     IMPORTANT: XC functional enforced from input :
     Exchange-correlation= PBESOL
                           (   1   4  10   8   0   0   0)
     Any further DFT definition will be discarded
     Please, verify this is what you really want


     Subspace diagonalization in iterative solution of the eigenvalue problem:
     a serial algorithm will be used


     G-vector sticks info
     --------------------
     sticks:   dense  smooth     PW     G-vecs:    dense   smooth      PW
     Sum        1777    1777    499               120595   120595   17639

     Using Slab Decomposition



     bravais-lattice index     =            4
     lattice parameter (alat)  =       9.5830  a.u.
     unit-cell volume          =    1524.2812 (a.u.)^3
     number of atoms/cell      =            8
     number of atomic types    =            1
     number of electrons       =        24.00
     number of Kohn-Sham states=           16
     kinetic-energy cutoff     =      70.0000  Ry
     charge density cutoff     =     280.0000  Ry
     Exchange-correlation= PBESOL
                           (   1   4  10   8   0   0   0)

     celldm(1)=   9.583000  celldm(2)=   0.000000  celldm(3)=   2.000000
     celldm(4)=   0.000000  celldm(5)=   0.000000  celldm(6)=   0.000000

     crystal axes: (cart. coord. in units of alat)
               a(1) = (   1.000000   0.000000   0.000000 )  
               a(2) = (  -0.500000   0.866025   0.000000 )  
               a(3) = (   0.000000   0.000000   2.000000 )  

     reciprocal axes: (cart. coord. in units 2 pi/alat)
               b(1) = (  1.000000  0.577350 -0.000000 )  
               b(2) = (  0.000000  1.154701  0.000000 )  
               b(3) = (  0.000000 -0.000000  0.500000 )  


     PseudoPot. # 1 for B  read from file:
     ../../pseudo/B.pbesol-n-rrkjus_psl.1.0.0.UPF
     MD5 check sum: a3839a09b1a4e02f2a06a66adc9253fc
     Pseudo is Ultrasoft + core correction, Zval =  3.0
     Generated using &quot;atomic&quot; code by A. Dal Corso  v.6.3MaX
     Using radial grid of 1059 points,  4 beta functions with: 
                l(1) =   0
                l(2) =   0
                l(3) =   1
                l(4) =   1
     Q(r) pseudized with 0 coefficients 


     atomic species   valence    mass     pseudopotential
        B              3.00    10.81100     B ( 1.00)

     24 Sym. Ops., with inversion, found



   Cartesian axes

     site n.     atom                  positions (alat units)
         1           B   tau(   1) = (   0.3333330   0.0000000   0.0000000  )
         2           B   tau(   2) = (   0.6666670   0.0000000   0.0000000  )
         3           B   tau(   3) = (  -0.1666665   0.2886748   0.0000000  )
         4           B   tau(   4) = (   0.1666665   0.2886748   0.0000000  )
         5           B   tau(   5) = (   0.5000005   0.2886748   0.0000000  )
         6           B   tau(   6) = (  -0.3333335   0.5773506   0.0000000  )
         7           B   tau(   7) = (  -0.0000005   0.5773506   0.0000000  )
         8           B   tau(   8) = (   0.3333335   0.5773506   0.0000000  )

     number of k points=    37 (tetrahedron method)
                       cart. coord. in units 2pi/alat
        k(    1) = (   0.0000000   0.0000000   0.0000000), wk =   0.0061728
        k(    2) = (   0.0000000   0.0641500   0.0000000), wk =   0.0370370
        k(    3) = (   0.0000000   0.1283001   0.0000000), wk =   0.0370370
        k(    4) = (   0.0000000   0.1924501   0.0000000), wk =   0.0370370
        k(    5) = (   0.0000000   0.2566001   0.0000000), wk =   0.0370370
        k(    6) = (   0.0000000   0.3207501   0.0000000), wk =   0.0370370
        k(    7) = (   0.0000000   0.3849002   0.0000000), wk =   0.0370370
        k(    8) = (   0.0000000   0.4490502   0.0000000), wk =   0.0370370
        k(    9) = (   0.0000000   0.5132002   0.0000000), wk =   0.0370370
        k(   10) = (   0.0000000  -0.5773503   0.0000000), wk =   0.0185185
        k(   11) = (   0.0555556   0.0962250   0.0000000), wk =   0.0370370
        k(   12) = (   0.0555556   0.1603751   0.0000000), wk =   0.0740741
        k(   13) = (   0.0555556   0.2245251   0.0000000), wk =   0.0740741
        k(   14) = (   0.0555556   0.2886751   0.0000000), wk =   0.0740741
        k(   15) = (   0.0555556   0.3528252   0.0000000), wk =   0.0740741
        k(   16) = (   0.0555556   0.4169752   0.0000000), wk =   0.0740741
        k(   17) = (   0.0555556   0.4811252   0.0000000), wk =   0.0740741
        k(   18) = (   0.0555556   0.5452753   0.0000000), wk =   0.0740741
        k(   19) = (   0.1111111   0.1924501   0.0000000), wk =   0.0370370
        k(   20) = (   0.1111111   0.2566001   0.0000000), wk =   0.0740741
        k(   21) = (   0.1111111   0.3207501   0.0000000), wk =   0.0740741
        k(   22) = (   0.1111111   0.3849002   0.0000000), wk =   0.0740741
        k(   23) = (   0.1111111   0.4490502   0.0000000), wk =   0.0740741
        k(   24) = (   0.1111111   0.5132002   0.0000000), wk =   0.0740741
        k(   25) = (   0.1111111   0.5773503   0.0000000), wk =   0.0370370
        k(   26) = (   0.1666667   0.2886751   0.0000000), wk =   0.0370370
        k(   27) = (   0.1666667   0.3528252   0.0000000), wk =   0.0740741
        k(   28) = (   0.1666667   0.4169752   0.0000000), wk =   0.0740741
        k(   29) = (   0.1666667   0.4811252   0.0000000), wk =   0.0740741
        k(   30) = (   0.1666667   0.5452753   0.0000000), wk =   0.0740741
        k(   31) = (   0.2222222   0.3849002   0.0000000), wk =   0.0370370
        k(   32) = (   0.2222222   0.4490502   0.0000000), wk =   0.0740741
        k(   33) = (   0.2222222   0.5132002   0.0000000), wk =   0.0740741
        k(   34) = (   0.2222222   0.5773503   0.0000000), wk =   0.0370370
        k(   35) = (   0.2777778   0.4811252   0.0000000), wk =   0.0370370
        k(   36) = (   0.2777778   0.5452753   0.0000000), wk =   0.0740741
        k(   37) = (   0.3333333   0.5773503   0.0000000), wk =   0.0123457

     Dense  grid:   120595 G-vectors     FFT dimensions: (  54,  54, 108)

     Estimated max dynamical RAM per process >     150.72 MB

     The potential is recalculated from file :
     ../../outdir/borophene.save/charge-density


     negative rho (up, down):  8.377E-04 0.000E+00
     Starting wfcs are   32 randomized atomic wfcs

     Band Structure Calculation
     Davidson diagonalization with overlap

     ethr =  4.17E-09,  avg # of iterations = 36.4

     total cpu time spent up to now is      295.1 secs

     End of band structure calculation

          k = 0.0000 0.0000 0.0000 ( 15117 PWs)   bands (ev):

   -16.1932 -12.0820 -12.0021 -12.0021  -9.7606  -9.7606  -7.6347  -7.0605
    -2.1466  -2.1465  -0.6663  -0.1586  -0.1586   0.1166   0.1166   0.4837

          k = 0.0000 0.0642 0.0000 ( 15084 PWs)   bands (ev):

   -16.1793 -12.3982 -12.0158 -11.6949  -9.7836  -9.7243  -7.5702  -7.0393
    -2.3285  -2.2999  -1.0414  -0.3243  -0.0029   0.2829   0.3113   0.6826

          k = 0.0000 0.1283 0.0000 ( 15092 PWs)   bands (ev):

   -16.1380 -12.7506 -12.0535 -11.3775  -9.8287  -9.6193  -7.3969  -6.9757
    -2.7524  -2.6612  -1.6181  -0.6031  -0.0010   0.6852   0.7727   1.0940

          k = 0.0000 0.1925 0.0000 ( 15100 PWs)   bands (ev):

   -16.0696 -13.0975 -12.1071 -11.1197  -9.8355  -9.4559  -7.1624  -6.8704
    -3.2643  -3.0905  -2.2037  -0.8703  -0.0963   1.1907   1.3451   1.5677

          k = 0.0000 0.2566 0.0000 ( 15062 PWs)   bands (ev):

   -15.9754 -13.4336 -12.1672 -10.9673  -9.7358  -9.2475  -6.9236  -6.7244
    -3.7911  -3.5015  -2.7700  -1.1038  -0.2168   1.7283   1.9527   2.0888

          k = 0.0000 0.3208 0.0000 ( 15060 PWs)   bands (ev):

   -15.8575 -13.7535 -12.2257 -10.9253  -9.5130  -9.0099  -6.7440  -6.5397
    -4.2970  -3.8322  -3.3056  -1.2977  -0.3356   2.2606   2.5569   2.6498

          k = 0.0000 0.3849 0.0000 ( 15056 PWs)   bands (ev):

   -15.7200 -14.0507 -12.2764 -10.9447  -9.2168  -8.7625  -6.6829  -6.3211
    -4.7558  -4.0339  -3.8010  -1.4497  -0.4380   2.7569   3.1293   3.1825

          k = 0.0000 0.4491 0.0000 ( 15080 PWs)   bands (ev):

   -15.5724 -14.3138 -12.3152 -10.9799  -8.9089  -8.5326  -6.7535  -6.0794
    -5.1374  -4.2420  -4.1019  -1.5588  -0.5159   3.1668   3.4870   3.6367

          k = 0.0000 0.5132 0.0000 ( 15070 PWs)   bands (ev):

   -15.4390 -14.5170 -12.3394 -11.0076  -8.6569  -8.3611  -6.8859  -5.8485
    -5.4003  -4.5932  -4.0940  -1.6245  -0.5642   3.3204   3.6780   3.8401

          k = 0.0000-0.5774 0.0000 ( 15062 PWs)   bands (ev):

   -15.3781 -14.6013 -12.3476 -11.0177  -8.5533  -8.2958  -6.9547  -5.7343
    -5.4960  -4.7476  -4.0815  -1.6464  -0.5806   3.2735   3.7493   4.1575

          k = 0.0556 0.0962 0.0000 ( 15071 PWs)   bands (ev):

   -16.1517 -12.6554 -12.0450 -11.4550  -9.8219  -9.6502  -7.4516  -6.9969
    -2.6330  -2.5449  -1.4525  -0.5853   0.1214   0.5446   0.6511   0.8026

          k = 0.0556 0.1604 0.0000 ( 15095 PWs)   bands (ev):

   -16.0968 -12.9726 -12.0995 -11.1840  -9.8618  -9.5078  -7.2492  -6.9124
    -3.0936  -2.9193  -1.9788  -0.8951   0.1454   0.9527   1.1258   1.1862

          k = 0.0556 0.2245 0.0000 ( 15092 PWs)   bands (ev):

   -16.0155 -13.2978 -12.1669 -10.9700  -9.8373  -9.3123  -7.0153  -6.7867
    -3.5958  -3.3280  -2.5257  -1.1670   0.0655   1.4241   1.5855   1.7999

          k = 0.0556 0.2887 0.0000 ( 15082 PWs)   bands (ev):

   -15.9092 -13.6162 -12.2366 -10.8631  -9.6910  -9.0803  -6.8118  -6.6211
    -4.0857  -3.7000  -3.0608  -1.3935  -0.0435   1.9105   2.1114   2.4359

          k = 0.0556 0.3528 0.0000 ( 15078 PWs)   bands (ev):

   -15.7808 -13.9192 -12.3004 -10.8483  -9.4353  -8.8304  -6.7060  -6.4187
    -4.5350  -3.9711  -3.5678  -1.5744  -0.1493   2.3818   2.6797   3.0456

          k = 0.0556 0.4170 0.0000 ( 15065 PWs)   bands (ev):

   -15.6365 -14.1972 -12.3524 -10.8733  -9.1305  -8.5859  -6.7408  -6.1864
    -4.9236  -4.1010  -4.0328  -1.7098  -0.2370   2.8108   3.2783   3.3385

          k = 0.0556 0.4811 0.0000 ( 15071 PWs)   bands (ev):

   -15.4908 -14.4331 -12.3888 -10.9027  -8.8405  -8.3803  -6.8824  -5.9427
    -5.2233  -4.4333  -4.1176  -1.8001  -0.2988   3.1512   3.5923   3.6643

          k = 0.0556 0.5453 0.0000 ( 15066 PWs)   bands (ev):

   -15.3833 -14.5862 -12.4076 -10.9204  -8.6474  -8.2579  -7.0167  -5.7492
    -5.3919  -4.7057  -4.0976  -1.8451  -0.3306   3.2734   3.4937   4.0089

          k = 0.1111 0.1925 0.0000 ( 15099 PWs)   bands (ev):

   -16.0289 -13.2452 -12.1803 -10.9513  -9.8934  -9.3237  -7.0499  -6.8075
    -3.5349  -3.2504  -2.4172  -1.2584   0.3544   1.2288   1.2908   1.7676

          k = 0.1111 0.2566 0.0000 ( 15088 PWs)   bands (ev):

   -15.9352 -13.5339 -12.2746 -10.7555  -9.8582  -9.0938  -6.8575  -6.6620
    -3.9772  -3.6031  -2.8902  -1.5677   0.4070   1.5510   1.6693   2.4179

          k = 0.1111 0.3208 0.0000 ( 15098 PWs)   bands (ev):

   -15.8178 -13.8221 -12.3659 -10.6568  -9.6977  -8.8414  -6.7438  -6.4779
    -4.3656  -3.9163  -3.3689  -1.8114   0.3570   2.0284   2.0567   2.9944

          k = 0.1111 0.3849 0.0000 ( 15088 PWs)   bands (ev):

   -15.6805 -14.0982 -12.4441 -10.6415  -9.4313  -8.5893  -6.7720  -6.2596
    -4.6875  -4.1161  -3.8304  -1.9946   0.2841   2.4294   2.5809   3.2466

          k = 0.1111 0.4491 0.0000 ( 15081 PWs)   bands (ev):

   -15.5321 -14.3488 -12.5031 -10.6579  -9.1284  -8.3648  -6.9366  -6.0174
    -4.9552  -4.2525  -4.1716  -2.1223   0.2206   2.7640   3.1711   3.5391

          k = 0.1111 0.5132 0.0000 ( 15088 PWs)   bands (ev):

   -15.3959 -14.5473 -12.5397 -10.6757  -8.8660  -8.2035  -7.1419  -5.7835
    -5.1462  -4.5965  -4.1486  -2.1979   0.1791   3.0298   3.4150   3.7623

          k = 0.1111 0.5774 0.0000 ( 15082 PWs)   bands (ev):

   -15.3323 -14.6319 -12.5521 -10.6827  -8.7531  -8.1435  -7.2408  -5.6655
    -5.2168  -4.7515  -4.1302  -2.2229   0.1648   3.1868   3.2493   4.1481

          k = 0.1667 0.2887 0.0000 ( 15085 PWs)   bands (ev):

   -15.8302 -13.7852 -12.3978 -10.5372  -9.8391  -8.8415  -6.7600  -6.4977
    -4.3057  -3.8913  -3.2827  -1.9193   0.6919   1.6504   1.9382   2.9724

          k = 0.1667 0.3528 0.0000 ( 15076 PWs)   bands (ev):

   -15.7029 -14.0390 -12.5124 -10.3988  -9.7033  -8.5854  -6.7973  -6.2967
    -4.5273  -4.1408  -3.6906  -2.1924   0.7977   1.9896   2.2146   3.2011

          k = 0.1667 0.4170 0.0000 ( 15081 PWs)   bands (ev):

   -15.5584 -14.2836 -12.6050 -10.3586  -9.4462  -8.3507  -6.9851  -6.0647
    -4.6952  -4.2608  -4.0935  -2.3877   0.7931   2.4825   2.4930   3.4730

          k = 0.1667 0.4811 0.0000 ( 15078 PWs)   bands (ev):

   -15.4094 -14.5019 -12.6691 -10.3592  -9.1555  -8.1655  -7.2490  -5.8180
    -4.8609  -4.4617  -4.2425  -2.5127   0.7650   2.7243   3.0584   3.5170

          k = 0.1667 0.5453 0.0000 ( 15070 PWs)   bands (ev):

   -15.2940 -14.6527 -12.7018 -10.3653  -8.9421  -8.0609  -7.4577  -5.6148
    -4.9657  -4.7278  -4.1985  -2.5737   0.7461   2.9124   3.2554   3.5790

          k = 0.2222 0.3849 0.0000 ( 15061 PWs)   bands (ev):

   -15.5675 -14.2586 -12.6448 -10.1673  -9.6428  -8.3456  -7.0032  -6.0809
    -4.5496  -4.3423  -4.0253  -2.4932   1.1537   2.0984   2.3820   3.4507

          k = 0.2222 0.4491 0.0000 ( 15067 PWs)   bands (ev):

   -15.4178 -14.4713 -12.7465 -10.0531  -9.4481  -8.1467  -7.3055  -5.8385
    -4.5999  -4.3894  -4.3627  -2.7034   1.3119   2.4536   2.5526   3.6272

          k = 0.2222 0.5132 0.0000 ( 15072 PWs)   bands (ev):

   -15.2718 -14.6563 -12.8095 -10.0248  -9.2004  -8.0129  -7.5998  -5.5947
    -4.7108  -4.6690  -4.3109  -2.8256   1.3471   2.7167   2.9417   3.2912

          k = 0.2222 0.5774 0.0000 ( 15062 PWs)   bands (ev):

   -15.1954 -14.7459 -12.8308 -10.0205  -9.0786  -7.9653  -7.7354  -5.4593
    -4.8263  -4.7545  -4.2741  -2.8656   1.3511   2.8175   3.1302   3.2526

          k = 0.2778 0.4811 0.0000 ( 15057 PWs)   bands (ev):

   -15.2649 -14.6553 -12.8485  -9.8034  -9.3952  -7.9972  -7.6473  -5.5905
    -4.6377  -4.5280  -4.4407  -2.9197   1.7392   2.5332   2.6459   3.3146

          k = 0.2778 0.5453 0.0000 ( 15061 PWs)   bands (ev):

   -15.1235 -14.8122 -12.9015  -9.6986  -9.2796  -7.9178  -7.8949  -5.3568
    -4.8855  -4.5667  -4.3786  -3.0283   1.9297   2.7603   2.7740   3.0602

          k = 0.3333 0.5774 0.0000 ( 15075 PWs)   bands (ev):

   -14.9689 -14.9689 -12.9334  -9.4368  -9.4368  -8.0172  -7.8855  -5.1164
    -5.1164  -4.4575  -4.4575  -3.0986   2.4425   2.4425   2.8731   2.8731

     the Fermi energy is    -0.4828 ev
     (compare with:    -0.6136 eV, computed in scf)

     Writing all to output data dir ../../outdir/borophene.save/

     init_run     :      1.05s CPU      0.98s WALL (       1 calls)
     electrons    :    355.01s CPU    294.06s WALL (       1 calls)

     Called by init_run:
     wfcinit      :      0.00s CPU      0.00s WALL (       1 calls)
     potinit      :      0.15s CPU      0.13s WALL (       1 calls)
     hinit0       :      0.71s CPU      0.62s WALL (       1 calls)

     Called by electrons:
     c_bands      :    354.98s CPU    294.03s WALL (       1 calls)
     v_of_rho     :      0.14s CPU      0.12s WALL (       1 calls)
     newd         :      0.06s CPU      0.09s WALL (       1 calls)

     Called by c_bands:
     init_us_2    :      0.18s CPU      0.21s WALL (      37 calls)
     init_us_2:cp :      0.18s CPU      0.21s WALL (      37 calls)
     cegterg      :    331.44s CPU    220.29s WALL (      85 calls)

     Called by *egterg:
     cdiaghg      :      0.80s CPU      0.61s WALL (    1384 calls)
     h_psi        :    318.74s CPU    245.37s WALL (    1469 calls)
     s_psi        :      8.12s CPU      4.96s WALL (    1469 calls)
     g_psi        :      1.35s CPU      1.24s WALL (    1347 calls)

     Called by h_psi:
     h_psi:calbec :      7.28s CPU      7.11s WALL (    1469 calls)
     vloc_psi     :    304.21s CPU    233.29s WALL (    1469 calls)
     add_vuspsi   :      5.94s CPU      3.70s WALL (    1469 calls)

     General routines
     calbec       :      7.26s CPU      7.10s WALL (    1469 calls)
     fft          :      0.57s CPU      0.48s WALL (      12 calls)
     fftw         :    271.95s CPU    203.86s WALL (   22394 calls)
     davcio       :      0.08s CPU      0.13s WALL (      74 calls)

     Parallel routines

     PWSCF        :   5m56.25s CPU   4m55.57s WALL


   This run was terminated on:  11:34:34   8Jul2025            

=------------------------------------------------------------------------------=
   JOB DONE.
=------------------------------------------------------------------------------=
