
     Program PROJWFC v.7.2 starts on  8Jul2025 at 11:40:36 

     This program is part of the open-source Quantum ESPRESSO suite
     for quantum simulation of materials; please cite
         "P. Giannozzi et al., J. Phys.:Condens. Matter 21 395502 (2009);
         "P. Giannozzi et al., J. Phys.:Condens. Matter 29 465901 (2017);
         "P. Giannozzi et al., J. Chem. Phys. 152 154105 (2020);
          URL http://www.quantum-espresso.org", 
     in publications or presentations arising from this work. More details at
     http://www.quantum-espresso.org/quote

     Parallel version (MPI & OpenMP), running on       2 processor cores
     Number of MPI processes:                 1
     Threads/MPI process:                     2

     MPI processes distributed on     1 nodes
     290 MiB available memory on the printing compute node when the environment starts


     Reading xml data from directory:

     ../../outdir/borophene.save/
     file B.pbesol-n-rrkjus_psl.1.0.0.UPF: wavefunction(s)  2S renormalized

     IMPORTANT: XC functional enforced from input :
     Exchange-correlation= PBESOL
                           (   1   4  10   8   0   0   0)
     Any further DFT definition will be discarded
     Please, verify this is what you really want


     G-vector sticks info
     --------------------
     sticks:   dense  smooth     PW     G-vecs:    dense   smooth      PW
     Sum        1777    1777    499               120595   120595   17639

     Using Slab Decomposition


     negative rho (up, down):  8.377E-04 0.000E+00

     Linear tetrahedron method (read from file) 
     [opt_tetra]  Linear tetrahedron method is used.

     Calling projwave .... 
     Subspace diagonalization in iterative solution of the eigenvalue problem:
     a serial algorithm will be used


  Problem Sizes 
  natomwfc =           32
  nbnd     =           16
  nkstot   =           37
  npwx     =        15117
  nkb      =           64


     Atomic states used for projection
     (read from pseudopotential files):

     state #   1: atom   1 (B  ), wfc  1 (l=0 m= 1)
     state #   2: atom   1 (B  ), wfc  2 (l=1 m= 1)
     state #   3: atom   1 (B  ), wfc  2 (l=1 m= 2)
     state #   4: atom   1 (B  ), wfc  2 (l=1 m= 3)
     state #   5: atom   2 (B  ), wfc  1 (l=0 m= 1)
     state #   6: atom   2 (B  ), wfc  2 (l=1 m= 1)
     state #   7: atom   2 (B  ), wfc  2 (l=1 m= 2)
     state #   8: atom   2 (B  ), wfc  2 (l=1 m= 3)
     state #   9: atom   3 (B  ), wfc  1 (l=0 m= 1)
     state #  10: atom   3 (B  ), wfc  2 (l=1 m= 1)
     state #  11: atom   3 (B  ), wfc  2 (l=1 m= 2)
     state #  12: atom   3 (B  ), wfc  2 (l=1 m= 3)
     state #  13: atom   4 (B  ), wfc  1 (l=0 m= 1)
     state #  14: atom   4 (B  ), wfc  2 (l=1 m= 1)
     state #  15: atom   4 (B  ), wfc  2 (l=1 m= 2)
     state #  16: atom   4 (B  ), wfc  2 (l=1 m= 3)
     state #  17: atom   5 (B  ), wfc  1 (l=0 m= 1)
     state #  18: atom   5 (B  ), wfc  2 (l=1 m= 1)
     state #  19: atom   5 (B  ), wfc  2 (l=1 m= 2)
     state #  20: atom   5 (B  ), wfc  2 (l=1 m= 3)
     state #  21: atom   6 (B  ), wfc  1 (l=0 m= 1)
     state #  22: atom   6 (B  ), wfc  2 (l=1 m= 1)
     state #  23: atom   6 (B  ), wfc  2 (l=1 m= 2)
     state #  24: atom   6 (B  ), wfc  2 (l=1 m= 3)
     state #  25: atom   7 (B  ), wfc  1 (l=0 m= 1)
     state #  26: atom   7 (B  ), wfc  2 (l=1 m= 1)
     state #  27: atom   7 (B  ), wfc  2 (l=1 m= 2)
     state #  28: atom   7 (B  ), wfc  2 (l=1 m= 3)
     state #  29: atom   8 (B  ), wfc  1 (l=0 m= 1)
     state #  30: atom   8 (B  ), wfc  2 (l=1 m= 1)
     state #  31: atom   8 (B  ), wfc  2 (l=1 m= 2)
     state #  32: atom   8 (B  ), wfc  2 (l=1 m= 3)

 k =   0.0000000000  0.0000000000  0.0000000000
==== e(   1) =   -16.19320 eV ==== 
     psi = 0.143*[#  17]+0.143*[#  25]+0.106*[#   1]+0.106*[#   5]+0.106*[#   9]
          +0.106*[#  13]+0.106*[#  21]+0.106*[#  29]+0.009*[#   3]+0.009*[#   7]
          +0.007*[#  12]+0.007*[#  16]+0.007*[#  24]+0.007*[#  32]+0.002*[#  11]
          +0.002*[#  15]+0.002*[#  23]+0.002*[#  31]
    |psi|^2 = 0.973
==== e(   2) =   -12.08199 eV ==== 
     psi = 0.125*[#   4]+0.125*[#   8]+0.117*[#  17]+0.117*[#  25]+0.093*[#  11]
          +0.093*[#  15]+0.093*[#  23]+0.093*[#  31]+0.031*[#  12]+0.031*[#  16]
          +0.031*[#  24]+0.031*[#  32]
    |psi|^2 = 0.981
==== e(   3) =   -12.00214 eV ==== 
     psi = 0.099*[#  19]+0.099*[#  20]+0.099*[#  27]+0.099*[#  28]+0.036*[#   3]
          +0.036*[#   7]+0.034*[#  12]+0.034*[#  16]+0.034*[#  24]+0.034*[#  32]
          +0.033*[#   1]+0.033*[#   5]+0.033*[#   9]+0.033*[#  13]+0.033*[#  21]
          +0.033*[#  29]+0.031*[#  11]+0.031*[#  15]+0.031*[#  23]+0.031*[#  31]
          +0.029*[#   4]+0.029*[#   8]
    |psi|^2 = 0.982
==== e(   4) =   -12.00210 eV ==== 
     psi = 0.099*[#  19]+0.099*[#  20]+0.099*[#  27]+0.099*[#  28]+0.036*[#   3]
          +0.036*[#   7]+0.034*[#  12]+0.034*[#  16]+0.034*[#  24]+0.034*[#  32]
          +0.033*[#   1]+0.033*[#   5]+0.033*[#   9]+0.033*[#  13]+0.033*[#  21]
          +0.033*[#  29]+0.031*[#  11]+0.031*[#  15]+0.031*[#  23]+0.031*[#  31]
          +0.029*[#   4]+0.029*[#   8]
    |psi|^2 = 0.982
==== e(   5) =    -9.76061 eV ==== 
     psi = 0.070*[#  19]+0.070*[#  20]+0.070*[#  27]+0.070*[#  28]+0.051*[#   4]
          +0.051*[#   8]+0.047*[#   1]+0.047*[#   5]+0.047*[#   9]+0.047*[#  13]
          +0.047*[#  21]+0.047*[#  29]+0.043*[#  11]+0.043*[#  15]+0.043*[#  23]
          +0.043*[#  31]+0.028*[#  12]+0.028*[#  16]+0.028*[#  24]+0.028*[#  32]
          +0.020*[#   3]+0.020*[#   7]
    |psi|^2 = 0.988
==== e(   6) =    -9.76057 eV ==== 
     psi = 0.070*[#  19]+0.070*[#  20]+0.070*[#  27]+0.070*[#  28]+0.051*[#   4]
          +0.051*[#   8]+0.047*[#   1]+0.047*[#   5]+0.047*[#   9]+0.047*[#  13]
          +0.047*[#  21]+0.047*[#  29]+0.043*[#  11]+0.043*[#  15]+0.043*[#  23]
          +0.043*[#  31]+0.028*[#  12]+0.028*[#  16]+0.028*[#  24]+0.028*[#  32]
          +0.020*[#   3]+0.020*[#   7]
    |psi|^2 = 0.988
==== e(   7) =    -7.63469 eV ==== 
     psi = 0.141*[#   3]+0.141*[#   7]+0.106*[#  12]+0.106*[#  16]+0.106*[#  24]
          +0.106*[#  32]+0.035*[#  11]+0.035*[#  15]+0.035*[#  23]+0.035*[#  31]
          +0.020*[#   1]+0.020*[#   5]+0.020*[#   9]+0.020*[#  13]+0.020*[#  21]
          +0.020*[#  29]+0.006*[#  17]+0.006*[#  25]
    |psi|^2 = 0.981
==== e(   8) =    -7.06052 eV ==== 
     psi = 0.152*[#  18]+0.152*[#  26]+0.100*[#   2]+0.100*[#   6]+0.100*[#  10]
          +0.100*[#  14]+0.100*[#  22]+0.100*[#  30]
    |psi|^2 = 0.901
==== e(   9) =    -2.14655 eV ==== 
     psi = 0.091*[#   4]+0.091*[#   8]+0.087*[#  11]+0.087*[#  15]+0.087*[#  23]
          +0.087*[#  31]+0.078*[#  12]+0.078*[#  16]+0.078*[#  24]+0.078*[#  32]
          +0.074*[#   3]+0.074*[#   7]
    |psi|^2 = 0.995
==== e(  10) =    -2.14654 eV ==== 
     psi = 0.091*[#   4]+0.091*[#   8]+0.087*[#  11]+0.087*[#  15]+0.087*[#  23]
          +0.087*[#  31]+0.078*[#  12]+0.078*[#  16]+0.078*[#  24]+0.078*[#  32]
          +0.074*[#   3]+0.074*[#   7]
    |psi|^2 = 0.995
==== e(  11) =    -0.66630 eV ==== 
     psi = 0.494*[#  18]+0.494*[#  26]
    |psi|^2 = 0.987
==== e(  12) =    -0.15862 eV ==== 
     psi = 0.164*[#   2]+0.164*[#   6]+0.164*[#  10]+0.164*[#  14]+0.164*[#  22]
          +0.164*[#  30]
    |psi|^2 = 0.981
==== e(  13) =    -0.15858 eV ==== 
     psi = 0.164*[#   2]+0.164*[#   6]+0.164*[#  10]+0.164*[#  14]+0.164*[#  22]
          +0.164*[#  30]
    |psi|^2 = 0.981
==== e(  14) =     0.11660 eV ==== 
     psi = 0.089*[#  19]+0.089*[#  20]+0.089*[#  27]+0.089*[#  28]+0.062*[#   3]
          +0.062*[#   7]+0.049*[#  12]+0.049*[#  16]+0.049*[#  24]+0.049*[#  32]
          +0.034*[#   1]+0.034*[#   5]+0.034*[#   9]+0.034*[#  13]+0.034*[#  21]
          +0.034*[#  29]+0.023*[#  11]+0.023*[#  15]+0.023*[#  23]+0.023*[#  31]
          +0.010*[#   4]+0.010*[#   8]
    |psi|^2 = 0.990
==== e(  15) =     0.11663 eV ==== 
     psi = 0.089*[#  19]+0.089*[#  20]+0.089*[#  27]+0.089*[#  28]+0.062*[#   3]
          +0.062*[#   7]+0.049*[#  12]+0.049*[#  16]+0.049*[#  24]+0.049*[#  32]
          +0.034*[#   1]+0.034*[#   5]+0.034*[#   9]+0.034*[#  13]+0.034*[#  21]
          +0.034*[#  29]+0.023*[#  11]+0.023*[#  15]+0.023*[#  23]+0.023*[#  31]
          +0.010*[#   4]+0.010*[#   8]
    |psi|^2 = 0.990
==== e(  16) =     0.48370 eV ==== 
     psi = 0.165*[#   2]+0.165*[#   6]+0.165*[#  10]+0.165*[#  14]+0.165*[#  22]
          +0.165*[#  30]
    |psi|^2 = 0.989

 k =   0.0000000000  0.0641500299  0.0000000000
==== e(   1) =   -16.17934 eV ==== 
     psi = 0.142*[#  17]+0.142*[#  25]+0.104*[#   1]+0.104*[#   5]+0.104*[#   9]
          +0.104*[#  13]+0.104*[#  21]+0.104*[#  29]+0.009*[#   3]+0.009*[#   7]
          +0.007*[#  12]+0.007*[#  16]+0.007*[#  24]+0.007*[#  32]+0.003*[#  11]
          +0.003*[#  15]+0.003*[#  23]+0.003*[#  31]
    |psi|^2 = 0.973
==== e(   2) =   -12.39815 eV ==== 
     psi = 0.079*[#   4]+0.079*[#   8]+0.067*[#  17]+0.067*[#  25]+0.064*[#  11]
          +0.064*[#  15]+0.064*[#  23]+0.064*[#  31]+0.041*[#  19]+0.041*[#  20]
          +0.041*[#  27]+0.041*[#  28]+0.033*[#  12]+0.033*[#  16]+0.033*[#  24]
          +0.033*[#  32]+0.017*[#   3]+0.017*[#   7]+0.017*[#   1]+0.017*[#   5]
          +0.017*[#   9]+0.017*[#  13]+0.017*[#  21]+0.017*[#  29]
    |psi|^2 = 0.980
==== e(   3) =   -12.01578 eV ==== 
     psi = 0.099*[#  19]+0.099*[#  20]+0.099*[#  27]+0.099*[#  28]+0.035*[#   3]
          +0.035*[#   7]+0.034*[#   1]+0.034*[#   5]+0.034*[#   9]+0.034*[#  13]
          +0.034*[#  21]+0.034*[#  29]+0.034*[#  12]+0.034*[#  16]+0.034*[#  24]
          +0.034*[#  32]+0.030*[#  11]+0.030*[#  15]+0.030*[#  23]+0.030*[#  31]
          +0.028*[#   4]+0.028*[#   8]
    |psi|^2 = 0.982
==== e(   4) =   -11.69488 eV ==== 
     psi = 0.074*[#   4]+0.074*[#   8]+0.060*[#  11]+0.060*[#  15]+0.060*[#  23]
          +0.060*[#  31]+0.058*[#  19]+0.058*[#  20]+0.058*[#  27]+0.058*[#  28]
          +0.050*[#  17]+0.050*[#  25]+0.032*[#  12]+0.032*[#  16]+0.032*[#  24]
          +0.032*[#  32]+0.018*[#   3]+0.018*[#   7]+0.017*[#   1]+0.017*[#   5]
          +0.017*[#   9]+0.017*[#  13]+0.017*[#  21]+0.017*[#  29]
    |psi|^2 = 0.983
==== e(   5) =    -9.78361 eV ==== 
     psi = 0.068*[#  19]+0.068*[#  20]+0.068*[#  27]+0.068*[#  28]+0.049*[#   4]
          +0.049*[#   8]+0.046*[#   1]+0.046*[#   5]+0.046*[#   9]+0.046*[#  13]
          +0.046*[#  21]+0.046*[#  29]+0.043*[#  11]+0.043*[#  15]+0.043*[#  23]
          +0.043*[#  31]+0.030*[#  12]+0.030*[#  16]+0.030*[#  24]+0.030*[#  32]
          +0.023*[#   3]+0.023*[#   7]
    |psi|^2 = 0.987
==== e(   6) =    -9.72429 eV ==== 
     psi = 0.070*[#  19]+0.070*[#  20]+0.070*[#  27]+0.070*[#  28]+0.051*[#   4]
          +0.051*[#   8]+0.046*[#   1]+0.046*[#   5]+0.046*[#   9]+0.046*[#  13]
          +0.046*[#  21]+0.046*[#  29]+0.044*[#  11]+0.044*[#  15]+0.044*[#  23]
          +0.044*[#  31]+0.028*[#  12]+0.028*[#  16]+0.028*[#  24]+0.028*[#  32]
          +0.020*[#   3]+0.020*[#   7]
    |psi|^2 = 0.988
==== e(   7) =    -7.57016 eV ==== 
     psi = 0.138*[#   3]+0.138*[#   7]+0.104*[#  12]+0.104*[#  16]+0.104*[#  24]
          +0.104*[#  32]+0.036*[#  11]+0.036*[#  15]+0.036*[#  23]+0.036*[#  31]
          +0.020*[#   1]+0.020*[#   5]+0.020*[#   9]+0.020*[#  13]+0.020*[#  21]
          +0.020*[#  29]+0.006*[#  17]+0.006*[#  25]+0.002*[#   4]+0.002*[#   8]
          +0.002*[#  19]+0.002*[#  20]+0.002*[#  27]+0.002*[#  28]
    |psi|^2 = 0.981
==== e(   8) =    -7.03928 eV ==== 
     psi = 0.152*[#  18]+0.152*[#  26]+0.100*[#   2]+0.100*[#   6]+0.100*[#  10]
          +0.100*[#  14]+0.100*[#  22]+0.100*[#  30]
    |psi|^2 = 0.902
==== e(   9) =    -2.32847 eV ==== 
     psi = 0.084*[#   4]+0.084*[#   8]+0.082*[#  11]+0.082*[#  15]+0.082*[#  23]
          +0.082*[#  31]+0.077*[#  12]+0.077*[#  16]+0.077*[#  24]+0.077*[#  32]
          +0.074*[#   3]+0.074*[#   7]+0.005*[#  19]+0.005*[#  20]+0.005*[#  27]
          +0.005*[#  28]+0.004*[#   1]+0.004*[#   5]+0.004*[#   9]+0.004*[#  13]
          +0.004*[#  21]+0.004*[#  29]
    |psi|^2 = 0.995
==== e(  10) =    -2.29986 eV ==== 
     psi = 0.085*[#   4]+0.085*[#   8]+0.082*[#  11]+0.082*[#  15]+0.082*[#  23]
          +0.082*[#  31]+0.077*[#  12]+0.077*[#  16]+0.077*[#  24]+0.077*[#  32]
          +0.074*[#   3]+0.074*[#   7]+0.005*[#  19]+0.005*[#  20]+0.005*[#  27]
          +0.005*[#  28]+0.003*[#   1]+0.003*[#   5]+0.003*[#   9]+0.003*[#  13]
          +0.003*[#  21]+0.003*[#  29]
    |psi|^2 = 0.995
==== e(  11) =    -1.04142 eV ==== 
     psi = 0.323*[#  18]+0.323*[#  26]+0.057*[#   2]+0.057*[#   6]+0.057*[#  10]
          +0.057*[#  14]+0.057*[#  22]+0.057*[#  30]
    |psi|^2 = 0.988
==== e(  12) =    -0.32433 eV ==== 
     psi = 0.164*[#   2]+0.164*[#   6]+0.164*[#  10]+0.164*[#  14]+0.164*[#  22]
          +0.164*[#  30]
    |psi|^2 = 0.984
==== e(  13) =    -0.00289 eV ==== 
     psi = 0.146*[#  18]+0.146*[#  26]+0.115*[#   2]+0.115*[#   6]+0.115*[#  10]
          +0.115*[#  14]+0.115*[#  22]+0.115*[#  30]
    |psi|^2 = 0.984
==== e(  14) =     0.28288 eV ==== 
     psi = 0.083*[#  19]+0.083*[#  20]+0.083*[#  27]+0.083*[#  28]+0.061*[#   3]
          +0.061*[#   7]+0.050*[#  12]+0.050*[#  16]+0.050*[#  24]+0.050*[#  32]
          +0.032*[#   1]+0.032*[#   5]+0.032*[#   9]+0.032*[#  13]+0.032*[#  21]
          +0.032*[#  29]+0.027*[#  11]+0.027*[#  15]+0.027*[#  23]+0.027*[#  31]
          +0.016*[#   4]+0.016*[#   8]+0.002*[#  17]+0.002*[#  25]
    |psi|^2 = 0.989
==== e(  15) =     0.31126 eV ==== 
     psi = 0.084*[#  19]+0.084*[#  20]+0.084*[#  27]+0.084*[#  28]+0.062*[#   3]
          +0.062*[#   7]+0.050*[#  12]+0.050*[#  16]+0.050*[#  24]+0.050*[#  32]
          +0.031*[#   1]+0.031*[#   5]+0.031*[#   9]+0.031*[#  13]+0.031*[#  21]
          +0.031*[#  29]+0.027*[#  11]+0.027*[#  15]+0.027*[#  23]+0.027*[#  31]
          +0.016*[#   4]+0.016*[#   8]
    |psi|^2 = 0.989
==== e(  16) =     0.68258 eV ==== 
     psi = 0.155*[#   2]+0.155*[#   6]+0.155*[#  10]+0.155*[#  14]+0.155*[#  22]
          +0.155*[#  30]+0.028*[#  18]+0.028*[#  26]
    |psi|^2 = 0.983

 k =   0.0000000000  0.1283000598  0.0000000000
==== e(   1) =   -16.13796 eV ==== 
     psi = 0.138*[#  17]+0.138*[#  25]+0.101*[#   1]+0.101*[#   5]+0.101*[#   9]
          +0.101*[#  13]+0.101*[#  21]+0.101*[#  29]+0.010*[#   3]+0.010*[#   7]
          +0.009*[#  12]+0.009*[#  16]+0.009*[#  24]+0.009*[#  32]+0.005*[#  11]
          +0.005*[#  15]+0.005*[#  23]+0.005*[#  31]+0.003*[#   4]+0.003*[#   8]
          +0.002*[#  19]+0.002*[#  20]+0.002*[#  27]+0.002*[#  28]
    |psi|^2 = 0.973
==== e(   2) =   -12.75058 eV ==== 
     psi = 0.073*[#   4]+0.073*[#   8]+0.066*[#  17]+0.066*[#  25]+0.059*[#  11]
          +0.059*[#  15]+0.059*[#  23]+0.059*[#  31]+0.041*[#  19]+0.041*[#  20]
          +0.041*[#  27]+0.041*[#  28]+0.033*[#  12]+0.033*[#  16]+0.033*[#  24]
          +0.033*[#  32]+0.021*[#   1]+0.021*[#   5]+0.021*[#   9]+0.021*[#  13]
          +0.021*[#  21]+0.021*[#  29]+0.020*[#   3]+0.020*[#   7]
    |psi|^2 = 0.978
==== e(   3) =   -12.05350 eV ==== 
     psi = 0.100*[#  19]+0.100*[#  20]+0.100*[#  27]+0.100*[#  28]+0.036*[#   1]
          +0.036*[#   5]+0.036*[#   9]+0.036*[#  13]+0.036*[#  21]+0.036*[#  29]
          +0.034*[#   3]+0.034*[#   7]+0.033*[#  12]+0.033*[#  16]+0.033*[#  24]
          +0.033*[#  32]+0.029*[#  11]+0.029*[#  15]+0.029*[#  23]+0.029*[#  31]
          +0.027*[#   4]+0.027*[#   8]
    |psi|^2 = 0.982
==== e(   4) =   -11.37748 eV ==== 
     psi = 0.078*[#   4]+0.078*[#   8]+0.062*[#  11]+0.062*[#  15]+0.062*[#  23]
          +0.062*[#  31]+0.058*[#  19]+0.058*[#  20]+0.058*[#  27]+0.058*[#  28]
          +0.050*[#  17]+0.050*[#  25]+0.030*[#  12]+0.030*[#  16]+0.030*[#  24]
          +0.030*[#  32]+0.016*[#   1]+0.016*[#   5]+0.016*[#   9]+0.016*[#  13]
          +0.016*[#  21]+0.016*[#  29]+0.015*[#   3]+0.015*[#   7]
    |psi|^2 = 0.984
==== e(   5) =    -9.82870 eV ==== 
     psi = 0.064*[#  19]+0.064*[#  20]+0.064*[#  27]+0.064*[#  28]+0.048*[#   4]
          +0.048*[#   8]+0.044*[#   1]+0.044*[#   5]+0.044*[#   9]+0.044*[#  13]
          +0.044*[#  21]+0.044*[#  29]+0.043*[#  11]+0.043*[#  15]+0.043*[#  23]
          +0.043*[#  31]+0.034*[#  12]+0.034*[#  16]+0.034*[#  24]+0.034*[#  32]
          +0.030*[#   3]+0.030*[#   7]+0.002*[#  17]+0.002*[#  25]
    |psi|^2 = 0.986
==== e(   6) =    -9.61929 eV ==== 
     psi = 0.070*[#  19]+0.070*[#  20]+0.070*[#  27]+0.070*[#  28]+0.054*[#   4]
          +0.054*[#   8]+0.046*[#  11]+0.046*[#  15]+0.046*[#  23]+0.046*[#  31]
          +0.044*[#   1]+0.044*[#   5]+0.044*[#   9]+0.044*[#  13]+0.044*[#  21]
          +0.044*[#  29]+0.029*[#  12]+0.029*[#  16]+0.029*[#  24]+0.029*[#  32]
          +0.020*[#   3]+0.020*[#   7]
    |psi|^2 = 0.988
==== e(   7) =    -7.39693 eV ==== 
     psi = 0.132*[#   3]+0.132*[#   7]+0.101*[#  12]+0.101*[#  16]+0.101*[#  24]
          +0.101*[#  32]+0.038*[#  11]+0.038*[#  15]+0.038*[#  23]+0.038*[#  31]
          +0.018*[#   1]+0.018*[#   5]+0.018*[#   9]+0.018*[#  13]+0.018*[#  21]
          +0.018*[#  29]+0.007*[#   4]+0.007*[#   8]+0.007*[#  19]+0.007*[#  20]
          +0.007*[#  27]+0.007*[#  28]+0.005*[#  17]+0.005*[#  25]
    |psi|^2 = 0.983
==== e(   8) =    -6.97573 eV ==== 
     psi = 0.153*[#  18]+0.153*[#  26]+0.100*[#   2]+0.100*[#   6]+0.100*[#  10]
          +0.100*[#  14]+0.100*[#  22]+0.100*[#  30]
    |psi|^2 = 0.904
==== e(   9) =    -2.75239 eV ==== 
     psi = 0.076*[#   3]+0.076*[#   7]+0.075*[#  12]+0.075*[#  16]+0.075*[#  24]
          +0.075*[#  32]+0.074*[#  11]+0.074*[#  15]+0.074*[#  23]+0.074*[#  31]
          +0.073*[#   4]+0.073*[#   8]+0.012*[#  19]+0.012*[#  20]+0.012*[#  27]
          +0.012*[#  28]+0.009*[#   1]+0.009*[#   5]+0.009*[#   9]+0.009*[#  13]
          +0.009*[#  21]+0.009*[#  29]
    |psi|^2 = 0.995
==== e(  10) =    -2.66124 eV ==== 
     psi = 0.077*[#   3]+0.077*[#   7]+0.075*[#  12]+0.075*[#  16]+0.075*[#  24]
          +0.075*[#  32]+0.073*[#  11]+0.073*[#  15]+0.073*[#  23]+0.073*[#  31]
          +0.072*[#   4]+0.072*[#   8]+0.013*[#  19]+0.013*[#  20]+0.013*[#  27]
          +0.013*[#  28]+0.008*[#   1]+0.008*[#   5]+0.008*[#   9]+0.008*[#  13]
          +0.008*[#  21]+0.008*[#  29]
    |psi|^2 = 0.995
==== e(  11) =    -1.61813 eV ==== 
     psi = 0.251*[#  18]+0.251*[#  26]+0.081*[#   2]+0.081*[#   6]+0.081*[#  10]
          +0.081*[#  14]+0.081*[#  22]+0.081*[#  30]
    |psi|^2 = 0.990
==== e(  12) =    -0.60307 eV ==== 
     psi = 0.164*[#   2]+0.164*[#   6]+0.164*[#  10]+0.164*[#  14]+0.164*[#  22]
          +0.164*[#  30]
    |psi|^2 = 0.987
==== e(  13) =    -0.00098 eV ==== 
     psi = 0.157*[#  18]+0.157*[#  26]+0.112*[#   2]+0.112*[#   6]+0.112*[#  10]
          +0.112*[#  14]+0.112*[#  22]+0.112*[#  30]
    |psi|^2 = 0.987
==== e(  14) =     0.68519 eV ==== 
     psi = 0.073*[#  19]+0.073*[#  20]+0.073*[#  27]+0.073*[#  28]+0.058*[#   3]
          +0.058*[#   7]+0.050*[#  12]+0.050*[#  16]+0.050*[#  24]+0.050*[#  32]
          +0.034*[#  11]+0.034*[#  15]+0.034*[#  23]+0.034*[#  31]+0.029*[#   1]
          +0.029*[#   5]+0.029*[#   9]+0.029*[#  13]+0.029*[#  21]+0.029*[#  29]
          +0.026*[#   4]+0.026*[#   8]+0.006*[#  17]+0.006*[#  25]
    |psi|^2 = 0.986
==== e(  15) =     0.77269 eV ==== 
     psi = 0.077*[#  19]+0.077*[#  20]+0.077*[#  27]+0.077*[#  28]+0.060*[#   3]
          +0.060*[#   7]+0.051*[#  12]+0.051*[#  16]+0.051*[#  24]+0.051*[#  32]
          +0.034*[#  11]+0.034*[#  15]+0.034*[#  23]+0.034*[#  31]+0.028*[#   1]
          +0.028*[#   5]+0.028*[#   9]+0.028*[#  13]+0.028*[#  21]+0.028*[#  29]
          +0.026*[#   4]+0.026*[#   8]
    |psi|^2 = 0.987
==== e(  16) =     1.09400 eV ==== 
     psi = 0.164*[#   2]+0.164*[#   6]+0.164*[#  10]+0.164*[#  14]+0.164*[#  22]
          +0.164*[#  30]
    |psi|^2 = 0.981

 k =   0.0000000000  0.1924500897  0.0000000000
==== e(   1) =   -16.06960 eV ==== 
     psi = 0.133*[#  17]+0.133*[#  25]+0.095*[#   1]+0.095*[#   5]+0.095*[#   9]
          +0.095*[#  13]+0.095*[#  21]+0.095*[#  29]+0.012*[#   3]+0.012*[#   7]
          +0.011*[#  12]+0.011*[#  16]+0.011*[#  24]+0.011*[#  32]+0.009*[#  11]
          +0.009*[#  15]+0.009*[#  23]+0.009*[#  31]+0.007*[#   4]+0.007*[#   8]
          +0.004*[#  19]+0.004*[#  20]+0.004*[#  27]+0.004*[#  28]
    |psi|^2 = 0.972
==== e(   2) =   -13.09753 eV ==== 
     psi = 0.068*[#   4]+0.068*[#   8]+0.067*[#  17]+0.067*[#  25]+0.056*[#  11]
          +0.056*[#  15]+0.056*[#  23]+0.056*[#  31]+0.040*[#  19]+0.040*[#  20]
          +0.040*[#  27]+0.040*[#  28]+0.033*[#  12]+0.033*[#  16]+0.033*[#  24]
          +0.033*[#  32]+0.025*[#   1]+0.025*[#   5]+0.025*[#   9]+0.025*[#  13]
          +0.025*[#  21]+0.025*[#  29]+0.021*[#   3]+0.021*[#   7]
    |psi|^2 = 0.976
==== e(   3) =   -12.10711 eV ==== 
     psi = 0.101*[#  19]+0.101*[#  20]+0.101*[#  27]+0.101*[#  28]+0.038*[#   1]
          +0.038*[#   5]+0.038*[#   9]+0.038*[#  13]+0.038*[#  21]+0.038*[#  29]
          +0.033*[#   3]+0.033*[#   7]+0.031*[#  12]+0.031*[#  16]+0.031*[#  24]
          +0.031*[#  32]+0.027*[#  11]+0.027*[#  15]+0.027*[#  23]+0.027*[#  31]
          +0.025*[#   4]+0.025*[#   8]
    |psi|^2 = 0.981
==== e(   4) =   -11.11971 eV ==== 
     psi = 0.077*[#   4]+0.077*[#   8]+0.061*[#  11]+0.061*[#  15]+0.061*[#  23]
          +0.061*[#  31]+0.059*[#  19]+0.059*[#  20]+0.059*[#  27]+0.059*[#  28]
          +0.047*[#  17]+0.047*[#  25]+0.029*[#  12]+0.029*[#  16]+0.029*[#  24]
          +0.029*[#  32]+0.018*[#   1]+0.018*[#   5]+0.018*[#   9]+0.018*[#  13]
          +0.018*[#  21]+0.018*[#  29]+0.013*[#   3]+0.013*[#   7]
    |psi|^2 = 0.984
==== e(   5) =    -9.83550 eV ==== 
     psi = 0.060*[#  19]+0.060*[#  20]+0.060*[#  27]+0.060*[#  28]+0.049*[#   4]
          +0.049*[#   8]+0.046*[#  11]+0.046*[#  15]+0.046*[#  23]+0.046*[#  31]
          +0.039*[#  12]+0.039*[#  16]+0.039*[#  24]+0.039*[#  32]+0.038*[#   1]
          +0.038*[#   5]+0.038*[#   9]+0.038*[#  13]+0.038*[#  21]+0.038*[#  29]
          +0.036*[#   3]+0.036*[#   7]+0.005*[#  17]+0.005*[#  25]
    |psi|^2 = 0.985
==== e(   6) =    -9.45587 eV ==== 
     psi = 0.070*[#  19]+0.070*[#  20]+0.070*[#  27]+0.070*[#  28]+0.058*[#   4]
          +0.058*[#   8]+0.049*[#  11]+0.049*[#  15]+0.049*[#  23]+0.049*[#  31]
          +0.040*[#   1]+0.040*[#   5]+0.040*[#   9]+0.040*[#  13]+0.040*[#  21]
          +0.040*[#  29]+0.030*[#  12]+0.030*[#  16]+0.030*[#  24]+0.030*[#  32]
          +0.020*[#   3]+0.020*[#   7]
    |psi|^2 = 0.989
==== e(   7) =    -7.16236 eV ==== 
     psi = 0.124*[#   3]+0.124*[#   7]+0.097*[#  12]+0.097*[#  16]+0.097*[#  24]
          +0.097*[#  32]+0.042*[#  11]+0.042*[#  15]+0.042*[#  23]+0.042*[#  31]
          +0.016*[#   1]+0.016*[#   5]+0.016*[#   9]+0.016*[#  13]+0.016*[#  21]
          +0.016*[#  29]+0.014*[#   4]+0.014*[#   8]+0.013*[#  19]+0.013*[#  20]
          +0.013*[#  27]+0.013*[#  28]+0.003*[#  17]+0.003*[#  25]
    |psi|^2 = 0.984
==== e(   8) =    -6.87040 eV ==== 
     psi = 0.154*[#  18]+0.154*[#  26]+0.100*[#   2]+0.100*[#   6]+0.100*[#  10]
          +0.100*[#  14]+0.100*[#  22]+0.100*[#  30]
    |psi|^2 = 0.908
==== e(   9) =    -3.26435 eV ==== 
     psi = 0.078*[#   3]+0.078*[#   7]+0.074*[#  12]+0.074*[#  16]+0.074*[#  24]
          +0.074*[#  32]+0.067*[#  11]+0.067*[#  15]+0.067*[#  23]+0.067*[#  31]
          +0.064*[#   4]+0.064*[#   8]+0.015*[#  19]+0.015*[#  20]+0.015*[#  27]
          +0.015*[#  28]+0.014*[#   1]+0.014*[#   5]+0.014*[#   9]+0.014*[#  13]
          +0.014*[#  21]+0.014*[#  29]
    |psi|^2 = 0.995
==== e(  10) =    -3.09052 eV ==== 
     psi = 0.080*[#   3]+0.080*[#   7]+0.075*[#  12]+0.075*[#  16]+0.075*[#  24]
          +0.075*[#  32]+0.066*[#  11]+0.066*[#  15]+0.066*[#  23]+0.066*[#  31]
          +0.061*[#   4]+0.061*[#   8]+0.016*[#  19]+0.016*[#  20]+0.016*[#  27]
          +0.016*[#  28]+0.013*[#   1]+0.013*[#   5]+0.013*[#   9]+0.013*[#  13]
          +0.013*[#  21]+0.013*[#  29]+0.002*[#  17]+0.002*[#  25]
    |psi|^2 = 0.995
==== e(  11) =    -2.20365 eV ==== 
     psi = 0.218*[#  18]+0.218*[#  26]+0.092*[#   2]+0.092*[#   6]+0.092*[#  10]
          +0.092*[#  14]+0.092*[#  22]+0.092*[#  30]
    |psi|^2 = 0.990
==== e(  12) =    -0.87028 eV ==== 
     psi = 0.165*[#   2]+0.165*[#   6]+0.165*[#  10]+0.165*[#  14]+0.165*[#  22]
          +0.165*[#  30]
    |psi|^2 = 0.989
==== e(  13) =    -0.09626 eV ==== 
     psi = 0.158*[#  18]+0.158*[#  26]+0.112*[#   2]+0.112*[#   6]+0.112*[#  10]
          +0.112*[#  14]+0.112*[#  22]+0.112*[#  30]
    |psi|^2 = 0.988
==== e(  14) =     1.19068 eV ==== 
     psi = 0.064*[#  19]+0.064*[#  20]+0.064*[#  27]+0.064*[#  28]+0.054*[#   3]
          +0.054*[#   7]+0.049*[#  12]+0.049*[#  16]+0.049*[#  24]+0.049*[#  32]
          +0.039*[#  11]+0.039*[#  15]+0.039*[#  23]+0.039*[#  31]+0.034*[#   4]
          +0.034*[#   8]+0.028*[#   1]+0.028*[#   5]+0.028*[#   9]+0.028*[#  13]
          +0.028*[#  21]+0.028*[#  29]+0.014*[#  17]+0.014*[#  25]
    |psi|^2 = 0.983
==== e(  15) =     1.34512 eV ==== 
     psi = 0.072*[#  19]+0.072*[#  20]+0.072*[#  27]+0.072*[#  28]+0.056*[#   3]
          +0.056*[#   7]+0.050*[#  12]+0.050*[#  16]+0.050*[#  24]+0.050*[#  32]
          +0.038*[#  11]+0.038*[#  15]+0.038*[#  23]+0.038*[#  31]+0.032*[#   4]
          +0.032*[#   8]+0.027*[#   1]+0.027*[#   5]+0.027*[#   9]+0.027*[#  13]
          +0.027*[#  21]+0.027*[#  29]
    |psi|^2 = 0.984
==== e(  16) =     1.56773 eV ==== 
     psi = 0.163*[#   2]+0.163*[#   6]+0.163*[#  10]+0.163*[#  14]+0.163*[#  22]
          +0.163*[#  30]
    |psi|^2 = 0.976

 k =   0.0000000000  0.2566001196  0.0000000000
==== e(   1) =   -15.97540 eV ==== 
     psi = 0.127*[#  17]+0.127*[#  25]+0.089*[#   1]+0.089*[#   5]+0.089*[#   9]
          +0.089*[#  13]+0.089*[#  21]+0.089*[#  29]+0.014*[#   3]+0.014*[#   7]
          +0.014*[#  12]+0.014*[#  16]+0.014*[#  24]+0.014*[#  32]+0.013*[#  11]
          +0.013*[#  15]+0.013*[#  23]+0.013*[#  31]+0.012*[#   4]+0.012*[#   8]
          +0.007*[#  19]+0.007*[#  20]+0.007*[#  27]+0.007*[#  28]
    |psi|^2 = 0.971
==== e(   2) =   -13.43356 eV ==== 
     psi = 0.068*[#  17]+0.068*[#  25]+0.063*[#   4]+0.063*[#   8]+0.053*[#  11]
          +0.053*[#  15]+0.053*[#  23]+0.053*[#  31]+0.039*[#  19]+0.039*[#  20]
          +0.039*[#  27]+0.039*[#  28]+0.032*[#  12]+0.032*[#  16]+0.032*[#  24]
          +0.032*[#  32]+0.029*[#   1]+0.029*[#   5]+0.029*[#   9]+0.029*[#  13]
          +0.029*[#  21]+0.029*[#  29]+0.022*[#   3]+0.022*[#   7]
    |psi|^2 = 0.973
==== e(   3) =   -12.16721 eV ==== 
     psi = 0.102*[#  19]+0.102*[#  20]+0.102*[#  27]+0.102*[#  28]+0.041*[#   1]
          +0.041*[#   5]+0.041*[#   9]+0.041*[#  13]+0.041*[#  21]+0.041*[#  29]
          +0.032*[#   3]+0.032*[#   7]+0.030*[#  12]+0.030*[#  16]+0.030*[#  24]
          +0.030*[#  32]+0.025*[#  11]+0.025*[#  15]+0.025*[#  23]+0.025*[#  31]
          +0.023*[#   4]+0.023*[#   8]
    |psi|^2 = 0.981
==== e(   4) =   -10.96731 eV ==== 
     psi = 0.071*[#   4]+0.071*[#   8]+0.058*[#  19]+0.058*[#  20]+0.058*[#  27]
          +0.058*[#  28]+0.057*[#  11]+0.057*[#  15]+0.057*[#  23]+0.057*[#  31]
          +0.041*[#  17]+0.041*[#  25]+0.029*[#  12]+0.029*[#  16]+0.029*[#  24]
          +0.029*[#  32]+0.025*[#   1]+0.025*[#   5]+0.025*[#   9]+0.025*[#  13]
          +0.025*[#  21]+0.025*[#  29]+0.016*[#   3]+0.016*[#   7]
    |psi|^2 = 0.983
==== e(   5) =    -9.73584 eV ==== 
     psi = 0.060*[#  19]+0.060*[#  20]+0.060*[#  27]+0.060*[#  28]+0.056*[#   4]
          +0.056*[#   8]+0.051*[#  11]+0.051*[#  15]+0.051*[#  23]+0.051*[#  31]
          +0.041*[#  12]+0.041*[#  16]+0.041*[#  24]+0.041*[#  32]+0.036*[#   3]
          +0.036*[#   7]+0.028*[#   1]+0.028*[#   5]+0.028*[#   9]+0.028*[#  13]
          +0.028*[#  21]+0.028*[#  29]+0.010*[#  17]+0.010*[#  25]
    |psi|^2 = 0.985
==== e(   6) =    -9.24754 eV ==== 
     psi = 0.071*[#  19]+0.071*[#  20]+0.071*[#  27]+0.071*[#  28]+0.064*[#   4]
          +0.064*[#   8]+0.052*[#  11]+0.052*[#  15]+0.052*[#  23]+0.052*[#  31]
          +0.035*[#   1]+0.035*[#   5]+0.035*[#   9]+0.035*[#  13]+0.035*[#  21]
          +0.035*[#  29]+0.030*[#  12]+0.030*[#  16]+0.030*[#  24]+0.030*[#  32]
          +0.019*[#   3]+0.019*[#   7]
    |psi|^2 = 0.989
==== e(   7) =    -6.92357 eV ==== 
     psi = 0.117*[#   3]+0.117*[#   7]+0.093*[#  12]+0.093*[#  16]+0.093*[#  24]
          +0.093*[#  32]+0.045*[#  11]+0.045*[#  15]+0.045*[#  23]+0.045*[#  31]
          +0.021*[#   4]+0.021*[#   8]+0.020*[#  19]+0.020*[#  20]+0.020*[#  27]
          +0.020*[#  28]+0.012*[#   1]+0.012*[#   5]+0.012*[#   9]+0.012*[#  13]
          +0.012*[#  21]+0.012*[#  29]+0.002*[#  17]+0.002*[#  25]
    |psi|^2 = 0.986
==== e(   8) =    -6.72436 eV ==== 
     psi = 0.155*[#  18]+0.155*[#  26]+0.101*[#   2]+0.101*[#   6]+0.101*[#  10]
          +0.101*[#  14]+0.101*[#  22]+0.101*[#  30]
    |psi|^2 = 0.913
==== e(   9) =    -3.79110 eV ==== 
     psi = 0.081*[#   3]+0.081*[#   7]+0.075*[#  12]+0.075*[#  16]+0.075*[#  24]
          +0.075*[#  32]+0.062*[#  11]+0.062*[#  15]+0.062*[#  23]+0.062*[#  31]
          +0.056*[#   4]+0.056*[#   8]+0.019*[#   1]+0.019*[#   5]+0.019*[#   9]
          +0.019*[#  13]+0.019*[#  21]+0.019*[#  29]+0.015*[#  19]+0.015*[#  20]
          +0.015*[#  27]+0.015*[#  28]
    |psi|^2 = 0.995
==== e(  10) =    -3.50150 eV ==== 
     psi = 0.085*[#   3]+0.085*[#   7]+0.076*[#  12]+0.076*[#  16]+0.076*[#  24]
          +0.076*[#  32]+0.060*[#  11]+0.060*[#  15]+0.060*[#  23]+0.060*[#  31]
          +0.051*[#   4]+0.051*[#   8]+0.018*[#   1]+0.018*[#   5]+0.018*[#   9]
          +0.018*[#  13]+0.018*[#  21]+0.018*[#  29]+0.016*[#  19]+0.016*[#  20]
          +0.016*[#  27]+0.016*[#  28]+0.004*[#  17]+0.004*[#  25]
    |psi|^2 = 0.994
==== e(  11) =    -2.77003 eV ==== 
     psi = 0.198*[#  18]+0.198*[#  26]+0.099*[#   2]+0.099*[#   6]+0.099*[#  10]
          +0.099*[#  14]+0.099*[#  22]+0.099*[#  30]
    |psi|^2 = 0.989
==== e(  12) =    -1.10377 eV ==== 
     psi = 0.165*[#   2]+0.165*[#   6]+0.165*[#  10]+0.165*[#  14]+0.165*[#  22]
          +0.165*[#  30]
    |psi|^2 = 0.989
==== e(  13) =    -0.21683 eV ==== 
     psi = 0.162*[#  18]+0.162*[#  26]+0.111*[#   2]+0.111*[#   6]+0.111*[#  10]
          +0.111*[#  14]+0.111*[#  22]+0.111*[#  30]
    |psi|^2 = 0.988
==== e(  14) =     1.72834 eV ==== 
     psi = 0.056*[#  19]+0.056*[#  20]+0.056*[#  27]+0.056*[#  28]+0.048*[#   3]
          +0.048*[#   7]+0.046*[#  12]+0.046*[#  16]+0.046*[#  24]+0.046*[#  32]
          +0.042*[#  11]+0.042*[#  15]+0.042*[#  23]+0.042*[#  31]+0.040*[#   4]
          +0.040*[#   8]+0.029*[#   1]+0.029*[#   5]+0.029*[#   9]+0.029*[#  13]
          +0.029*[#  21]+0.029*[#  29]+0.027*[#  17]+0.027*[#  25]
    |psi|^2 = 0.977
==== e(  15) =     1.95266 eV ==== 
     psi = 0.070*[#  19]+0.070*[#  20]+0.070*[#  27]+0.070*[#  28]+0.052*[#   3]
          +0.052*[#   7]+0.048*[#  12]+0.048*[#  16]+0.048*[#  24]+0.048*[#  32]
          +0.040*[#  11]+0.040*[#  15]+0.040*[#  23]+0.040*[#  31]+0.036*[#   4]
          +0.036*[#   8]+0.029*[#   1]+0.029*[#   5]+0.029*[#   9]+0.029*[#  13]
          +0.029*[#  21]+0.029*[#  29]
    |psi|^2 = 0.981
==== e(  16) =     2.08884 eV ==== 
     psi = 0.162*[#   2]+0.162*[#   6]+0.162*[#  10]+0.162*[#  14]+0.162*[#  22]
          +0.162*[#  30]
    |psi|^2 = 0.972

 k =   0.0000000000  0.3207501495  0.0000000000
==== e(   1) =   -15.85746 eV ==== 
     psi = 0.121*[#  17]+0.121*[#  25]+0.081*[#   1]+0.081*[#   5]+0.081*[#   9]
          +0.081*[#  13]+0.081*[#  21]+0.081*[#  29]+0.017*[#   4]+0.017*[#   8]
          +0.017*[#  11]+0.017*[#  15]+0.017*[#  23]+0.017*[#  31]+0.017*[#  12]
          +0.017*[#  16]+0.017*[#  24]+0.017*[#  32]+0.017*[#   3]+0.017*[#   7]
          +0.009*[#  19]+0.009*[#  20]+0.009*[#  27]+0.009*[#  28]
    |psi|^2 = 0.970
==== e(   2) =   -13.75349 eV ==== 
     psi = 0.070*[#  17]+0.070*[#  25]+0.058*[#   4]+0.058*[#   8]+0.049*[#  11]
          +0.049*[#  15]+0.049*[#  23]+0.049*[#  31]+0.037*[#  19]+0.037*[#  20]
          +0.037*[#  27]+0.037*[#  28]+0.033*[#   1]+0.033*[#   5]+0.033*[#   9]
          +0.033*[#  13]+0.033*[#  21]+0.033*[#  29]+0.031*[#  12]+0.031*[#  16]
          +0.031*[#  24]+0.031*[#  32]+0.023*[#   3]+0.023*[#   7]
    |psi|^2 = 0.971
==== e(   3) =   -12.22567 eV ==== 
     psi = 0.103*[#  19]+0.103*[#  20]+0.103*[#  27]+0.103*[#  28]+0.043*[#   1]
          +0.043*[#   5]+0.043*[#   9]+0.043*[#  13]+0.043*[#  21]+0.043*[#  29]
          +0.031*[#   3]+0.031*[#   7]+0.028*[#  12]+0.028*[#  16]+0.028*[#  24]
          +0.028*[#  32]+0.023*[#  11]+0.023*[#  15]+0.023*[#  23]+0.023*[#  31]
          +0.021*[#   4]+0.021*[#   8]
    |psi|^2 = 0.980
==== e(   4) =   -10.92534 eV ==== 
     psi = 0.063*[#   4]+0.063*[#   8]+0.055*[#  19]+0.055*[#  20]+0.055*[#  27]
          +0.055*[#  28]+0.053*[#  11]+0.053*[#  15]+0.053*[#  23]+0.053*[#  31]
          +0.035*[#  17]+0.035*[#  25]+0.032*[#  12]+0.032*[#  16]+0.032*[#  24]
          +0.032*[#  32]+0.031*[#   1]+0.031*[#   5]+0.031*[#   9]+0.031*[#  13]
          +0.031*[#  21]+0.031*[#  29]+0.021*[#   3]+0.021*[#   7]
    |psi|^2 = 0.982
==== e(   5) =    -9.51305 eV ==== 
     psi = 0.066*[#   4]+0.066*[#   8]+0.063*[#  19]+0.063*[#  20]+0.063*[#  27]
          +0.063*[#  28]+0.058*[#  11]+0.058*[#  15]+0.058*[#  23]+0.058*[#  31]
          +0.040*[#  12]+0.040*[#  16]+0.040*[#  24]+0.040*[#  32]+0.032*[#   3]
          +0.032*[#   7]+0.019*[#   1]+0.019*[#   5]+0.019*[#   9]+0.019*[#  13]
          +0.019*[#  21]+0.019*[#  29]+0.014*[#  17]+0.014*[#  25]
    |psi|^2 = 0.986
==== e(   6) =    -9.00995 eV ==== 
     psi = 0.073*[#  19]+0.073*[#  20]+0.073*[#  27]+0.073*[#  28]+0.070*[#   4]
          +0.070*[#   8]+0.057*[#  11]+0.057*[#  15]+0.057*[#  23]+0.057*[#  31]
          +0.030*[#  12]+0.030*[#  16]+0.030*[#  24]+0.030*[#  32]+0.029*[#   1]
          +0.029*[#   5]+0.029*[#   9]+0.029*[#  13]+0.029*[#  21]+0.029*[#  29]
          +0.017*[#   3]+0.017*[#   7]
    |psi|^2 = 0.990
==== e(   7) =    -6.74398 eV ==== 
     psi = 0.110*[#   3]+0.110*[#   7]+0.089*[#  12]+0.089*[#  16]+0.089*[#  24]
          +0.089*[#  32]+0.048*[#  11]+0.048*[#  15]+0.048*[#  23]+0.048*[#  31]
          +0.028*[#   4]+0.028*[#   8]+0.027*[#  19]+0.027*[#  20]+0.027*[#  27]
          +0.027*[#  28]+0.008*[#   1]+0.008*[#   5]+0.008*[#   9]+0.008*[#  13]
          +0.008*[#  21]+0.008*[#  29]
    |psi|^2 = 0.986
==== e(   8) =    -6.53975 eV ==== 
     psi = 0.157*[#  18]+0.157*[#  26]+0.101*[#   2]+0.101*[#   6]+0.101*[#  10]
          +0.101*[#  14]+0.101*[#  22]+0.101*[#  30]
    |psi|^2 = 0.920
==== e(   9) =    -4.29699 eV ==== 
     psi = 0.084*[#   3]+0.084*[#   7]+0.075*[#  12]+0.075*[#  16]+0.075*[#  24]
          +0.075*[#  32]+0.057*[#  11]+0.057*[#  15]+0.057*[#  23]+0.057*[#  31]
          +0.048*[#   4]+0.048*[#   8]+0.023*[#   1]+0.023*[#   5]+0.023*[#   9]
          +0.023*[#  13]+0.023*[#  21]+0.023*[#  29]+0.014*[#  19]+0.014*[#  20]
          +0.014*[#  27]+0.014*[#  28]
    |psi|^2 = 0.994
==== e(  10) =    -3.83215 eV ==== 
     psi = 0.092*[#   3]+0.092*[#   7]+0.080*[#  12]+0.080*[#  16]+0.080*[#  24]
          +0.080*[#  32]+0.054*[#  11]+0.054*[#  15]+0.054*[#  23]+0.054*[#  31]
          +0.042*[#   4]+0.042*[#   8]+0.021*[#   1]+0.021*[#   5]+0.021*[#   9]
          +0.021*[#  13]+0.021*[#  21]+0.021*[#  29]+0.012*[#  19]+0.012*[#  20]
          +0.012*[#  27]+0.012*[#  28]+0.006*[#  17]+0.006*[#  25]
    |psi|^2 = 0.993
==== e(  11) =    -3.30563 eV ==== 
     psi = 0.184*[#  18]+0.184*[#  26]+0.103*[#   2]+0.103*[#   6]+0.103*[#  10]
          +0.103*[#  14]+0.103*[#  22]+0.103*[#  30]
    |psi|^2 = 0.985
==== e(  12) =    -1.29766 eV ==== 
     psi = 0.165*[#   2]+0.165*[#   6]+0.165*[#  10]+0.165*[#  14]+0.165*[#  22]
          +0.165*[#  30]
    |psi|^2 = 0.990
==== e(  13) =    -0.33556 eV ==== 
     psi = 0.166*[#  18]+0.166*[#  26]+0.109*[#   2]+0.109*[#   6]+0.109*[#  10]
          +0.109*[#  14]+0.109*[#  22]+0.109*[#  30]
    |psi|^2 = 0.989
==== e(  14) =     2.26056 eV ==== 
     psi = 0.047*[#  19]+0.047*[#  20]+0.047*[#  27]+0.047*[#  28]+0.046*[#  17]
          +0.046*[#  25]+0.043*[#   4]+0.043*[#   8]+0.042*[#  11]+0.042*[#  15]
          +0.042*[#  23]+0.042*[#  31]+0.041*[#  12]+0.041*[#  16]+0.041*[#  24]
          +0.041*[#  32]+0.040*[#   3]+0.040*[#   7]+0.032*[#   1]+0.032*[#   5]
          +0.032*[#   9]+0.032*[#  13]+0.032*[#  21]+0.032*[#  29]
    |psi|^2 = 0.969
==== e(  15) =     2.55688 eV ==== 
     psi = 0.069*[#  19]+0.069*[#  20]+0.069*[#  27]+0.069*[#  28]+0.046*[#   3]
          +0.046*[#   7]+0.044*[#  12]+0.044*[#  16]+0.044*[#  24]+0.044*[#  32]
          +0.040*[#  11]+0.040*[#  15]+0.040*[#  23]+0.040*[#  31]+0.037*[#   4]
          +0.037*[#   8]+0.033*[#   1]+0.033*[#   5]+0.033*[#   9]+0.033*[#  13]
          +0.033*[#  21]+0.033*[#  29]
    |psi|^2 = 0.977
==== e(  16) =     2.64982 eV ==== 
     psi = 0.161*[#   2]+0.161*[#   6]+0.161*[#  10]+0.161*[#  14]+0.161*[#  22]
          +0.161*[#  30]
    |psi|^2 = 0.966

 k =   0.0000000000  0.3849001795  0.0000000000
==== e(   1) =   -15.71998 eV ==== 
     psi = 0.115*[#  17]+0.115*[#  25]+0.074*[#   1]+0.074*[#   5]+0.074*[#   9]
          +0.074*[#  13]+0.074*[#  21]+0.074*[#  29]+0.023*[#   4]+0.023*[#   8]
          +0.022*[#  11]+0.022*[#  15]+0.022*[#  23]+0.022*[#  31]+0.020*[#  12]
          +0.020*[#  16]+0.020*[#  24]+0.020*[#  32]+0.018*[#   3]+0.018*[#   7]
          +0.012*[#  19]+0.012*[#  20]+0.012*[#  27]+0.012*[#  28]
    |psi|^2 = 0.969
==== e(   2) =   -14.05068 eV ==== 
     psi = 0.073*[#  17]+0.073*[#  25]+0.053*[#   4]+0.053*[#   8]+0.045*[#  11]
          +0.045*[#  15]+0.045*[#  23]+0.045*[#  31]+0.038*[#   1]+0.038*[#   5]
          +0.038*[#   9]+0.038*[#  13]+0.038*[#  21]+0.038*[#  29]+0.036*[#  19]
          +0.036*[#  20]+0.036*[#  27]+0.036*[#  28]+0.030*[#  12]+0.030*[#  16]
          +0.030*[#  24]+0.030*[#  32]+0.023*[#   3]+0.023*[#   7]
    |psi|^2 = 0.969
==== e(   3) =   -12.27638 eV ==== 
     psi = 0.104*[#  19]+0.104*[#  20]+0.104*[#  27]+0.104*[#  28]+0.045*[#   1]
          +0.045*[#   5]+0.045*[#   9]+0.045*[#  13]+0.045*[#  21]+0.045*[#  29]
          +0.030*[#   3]+0.030*[#   7]+0.027*[#  12]+0.027*[#  16]+0.027*[#  24]
          +0.027*[#  32]+0.022*[#  11]+0.022*[#  15]+0.022*[#  23]+0.022*[#  31]
          +0.019*[#   4]+0.019*[#   8]
    |psi|^2 = 0.980
==== e(   4) =   -10.94469 eV ==== 
     psi = 0.057*[#   4]+0.057*[#   8]+0.052*[#  19]+0.052*[#  20]+0.052*[#  27]
          +0.052*[#  28]+0.050*[#  11]+0.050*[#  15]+0.050*[#  23]+0.050*[#  31]
          +0.034*[#   1]+0.034*[#   5]+0.034*[#   9]+0.034*[#  13]+0.034*[#  21]
          +0.034*[#  29]+0.034*[#  12]+0.034*[#  16]+0.034*[#  24]+0.034*[#  32]
          +0.032*[#  17]+0.032*[#  25]+0.026*[#   3]+0.026*[#   7]
    |psi|^2 = 0.981
==== e(   5) =    -9.21679 eV ==== 
     psi = 0.076*[#   4]+0.076*[#   8]+0.069*[#  19]+0.069*[#  20]+0.069*[#  27]
          +0.069*[#  28]+0.063*[#  11]+0.063*[#  15]+0.063*[#  23]+0.063*[#  31]
          +0.038*[#  12]+0.038*[#  16]+0.038*[#  24]+0.038*[#  32]+0.025*[#   3]
          +0.025*[#   7]+0.016*[#  17]+0.016*[#  25]+0.013*[#   1]+0.013*[#   5]
          +0.013*[#   9]+0.013*[#  13]+0.013*[#  21]+0.013*[#  29]
    |psi|^2 = 0.987
==== e(   6) =    -8.76245 eV ==== 
     psi = 0.077*[#   4]+0.077*[#   8]+0.076*[#  19]+0.076*[#  20]+0.076*[#  27]
          +0.076*[#  28]+0.061*[#  11]+0.061*[#  15]+0.061*[#  23]+0.061*[#  31]
          +0.029*[#  12]+0.029*[#  16]+0.029*[#  24]+0.029*[#  32]+0.024*[#   1]
          +0.024*[#   5]+0.024*[#   9]+0.024*[#  13]+0.024*[#  21]+0.024*[#  29]
          +0.014*[#   3]+0.014*[#   7]
    |psi|^2 = 0.990
==== e(   7) =    -6.68295 eV ==== 
     psi = 0.103*[#   3]+0.103*[#   7]+0.086*[#  12]+0.086*[#  16]+0.086*[#  24]
          +0.086*[#  32]+0.050*[#  11]+0.050*[#  15]+0.050*[#  23]+0.050*[#  31]
          +0.034*[#  19]+0.034*[#  20]+0.034*[#  27]+0.034*[#  28]+0.033*[#   4]
          +0.033*[#   8]+0.006*[#   1]+0.006*[#   5]+0.006*[#   9]+0.006*[#  13]
          +0.006*[#  21]+0.006*[#  29]
    |psi|^2 = 0.987
==== e(   8) =    -6.32106 eV ==== 
     psi = 0.161*[#  18]+0.161*[#  26]+0.101*[#   2]+0.101*[#   6]+0.101*[#  10]
          +0.101*[#  14]+0.101*[#  22]+0.101*[#  30]
    |psi|^2 = 0.928
==== e(   9) =    -4.75577 eV ==== 
     psi = 0.089*[#   3]+0.089*[#   7]+0.077*[#  12]+0.077*[#  16]+0.077*[#  24]
          +0.077*[#  32]+0.053*[#  11]+0.053*[#  15]+0.053*[#  23]+0.053*[#  31]
          +0.041*[#   4]+0.041*[#   8]+0.028*[#   1]+0.028*[#   5]+0.028*[#   9]
          +0.028*[#  13]+0.028*[#  21]+0.028*[#  29]+0.011*[#  19]+0.011*[#  20]
          +0.011*[#  27]+0.011*[#  28]
    |psi|^2 = 0.994
==== e(  10) =    -4.03386 eV ==== 
     psi = 0.101*[#   3]+0.101*[#   7]+0.085*[#  12]+0.085*[#  16]+0.085*[#  24]
          +0.085*[#  32]+0.051*[#  11]+0.051*[#  15]+0.051*[#  23]+0.051*[#  31]
          +0.034*[#   4]+0.034*[#   8]+0.023*[#   1]+0.023*[#   5]+0.023*[#   9]
          +0.023*[#  13]+0.023*[#  21]+0.023*[#  29]+0.007*[#  17]+0.007*[#  19]
          +0.007*[#  20]+0.007*[#  25]+0.007*[#  27]+0.007*[#  28]
    |psi|^2 = 0.993
==== e(  11) =    -3.80099 eV ==== 
     psi = 0.172*[#  18]+0.172*[#  26]+0.106*[#   2]+0.106*[#   6]+0.106*[#  10]
          +0.106*[#  14]+0.106*[#  22]+0.106*[#  30]
    |psi|^2 = 0.980
==== e(  12) =    -1.44970 eV ==== 
     psi = 0.165*[#   2]+0.165*[#   6]+0.165*[#  10]+0.165*[#  14]+0.165*[#  22]
          +0.165*[#  30]
    |psi|^2 = 0.990
==== e(  13) =    -0.43804 eV ==== 
     psi = 0.169*[#  18]+0.169*[#  26]+0.108*[#   2]+0.108*[#   6]+0.108*[#  10]
          +0.108*[#  14]+0.108*[#  22]+0.108*[#  30]
    |psi|^2 = 0.989
==== e(  14) =     2.75686 eV ==== 
     psi = 0.071*[#  17]+0.071*[#  25]+0.043*[#   4]+0.043*[#   8]+0.040*[#  11]
          +0.040*[#  15]+0.040*[#  23]+0.040*[#  31]+0.039*[#  19]+0.039*[#  20]
          +0.039*[#  27]+0.039*[#  28]+0.037*[#   1]+0.037*[#   5]+0.037*[#   9]
          +0.037*[#  13]+0.037*[#  21]+0.037*[#  29]+0.033*[#  12]+0.033*[#  16]
          +0.033*[#  24]+0.033*[#  32]+0.029*[#   3]+0.029*[#   7]
    |psi|^2 = 0.951
==== e(  15) =     3.12933 eV ==== 
     psi = 0.068*[#  19]+0.068*[#  20]+0.068*[#  27]+0.068*[#  28]+0.040*[#   1]
          +0.040*[#   5]+0.040*[#   9]+0.040*[#  13]+0.040*[#  21]+0.040*[#  29]
          +0.040*[#   3]+0.040*[#   7]+0.039*[#  12]+0.039*[#  16]+0.039*[#  24]
          +0.039*[#  32]+0.038*[#  11]+0.038*[#  15]+0.038*[#  23]+0.038*[#  31]
          +0.038*[#   4]+0.038*[#   8]
    |psi|^2 = 0.975
==== e(  16) =     3.18248 eV ==== 
     psi = 0.010*[#   4]+0.010*[#   8]+0.010*[#  11]+0.010*[#  15]+0.010*[#  23]
          +0.010*[#  31]+0.009*[#  12]+0.009*[#  16]+0.009*[#  24]+0.009*[#  32]
          +0.009*[#   3]+0.009*[#   7]+0.004*[#  19]+0.004*[#  20]+0.004*[#  27]
          +0.004*[#  28]+0.002*[#   1]+0.002*[#   5]+0.002*[#   9]+0.002*[#  13]
          +0.002*[#  21]+0.002*[#  29]
    |psi|^2 = 0.141

 k =   0.0000000000  0.4490502094  0.0000000000
==== e(   1) =   -15.57236 eV ==== 
     psi = 0.110*[#  17]+0.110*[#  25]+0.067*[#   1]+0.067*[#   5]+0.067*[#   9]
          +0.067*[#  13]+0.067*[#  21]+0.067*[#  29]+0.029*[#   4]+0.029*[#   8]
          +0.027*[#  11]+0.027*[#  15]+0.027*[#  23]+0.027*[#  31]+0.022*[#  12]
          +0.022*[#  16]+0.022*[#  24]+0.022*[#  32]+0.020*[#   3]+0.020*[#   7]
          +0.013*[#  19]+0.013*[#  20]+0.013*[#  27]+0.013*[#  28]
    |psi|^2 = 0.968
==== e(   2) =   -14.31379 eV ==== 
     psi = 0.075*[#  17]+0.075*[#  25]+0.047*[#   4]+0.047*[#   8]+0.043*[#   1]
          +0.043*[#   5]+0.043*[#   9]+0.043*[#  13]+0.043*[#  21]+0.043*[#  29]
          +0.041*[#  11]+0.041*[#  15]+0.041*[#  23]+0.041*[#  31]+0.035*[#  19]
          +0.035*[#  20]+0.035*[#  27]+0.035*[#  28]+0.029*[#  12]+0.029*[#  16]
          +0.029*[#  24]+0.029*[#  32]+0.023*[#   3]+0.023*[#   7]
    |psi|^2 = 0.968
==== e(   3) =   -12.31516 eV ==== 
     psi = 0.105*[#  19]+0.105*[#  20]+0.105*[#  27]+0.105*[#  28]+0.047*[#   1]
          +0.047*[#   5]+0.047*[#   9]+0.047*[#  13]+0.047*[#  21]+0.047*[#  29]
          +0.029*[#   3]+0.029*[#   7]+0.026*[#  12]+0.026*[#  16]+0.026*[#  24]
          +0.026*[#  32]+0.020*[#  11]+0.020*[#  15]+0.020*[#  23]+0.020*[#  31]
          +0.018*[#   4]+0.018*[#   8]
    |psi|^2 = 0.980
==== e(   4) =   -10.97991 eV ==== 
     psi = 0.054*[#   4]+0.054*[#   8]+0.050*[#  19]+0.050*[#  20]+0.050*[#  27]
          +0.050*[#  28]+0.048*[#  11]+0.048*[#  15]+0.048*[#  23]+0.048*[#  31]
          +0.036*[#   1]+0.036*[#   5]+0.036*[#   9]+0.036*[#  13]+0.036*[#  21]
          +0.036*[#  29]+0.036*[#  12]+0.036*[#  16]+0.036*[#  24]+0.036*[#  32]
          +0.030*[#   3]+0.030*[#   7]+0.030*[#  17]+0.030*[#  25]
    |psi|^2 = 0.980
==== e(   5) =    -8.90889 eV ==== 
     psi = 0.085*[#   4]+0.085*[#   8]+0.075*[#  19]+0.075*[#  20]+0.075*[#  27]
          +0.075*[#  28]+0.068*[#  11]+0.068*[#  15]+0.068*[#  23]+0.068*[#  31]
          +0.034*[#  12]+0.034*[#  16]+0.034*[#  24]+0.034*[#  32]+0.017*[#   3]
          +0.017*[#   7]+0.015*[#  17]+0.015*[#  25]+0.008*[#   1]+0.008*[#   5]
          +0.008*[#   9]+0.008*[#  13]+0.008*[#  21]+0.008*[#  29]
    |psi|^2 = 0.988
==== e(   6) =    -8.53263 eV ==== 
     psi = 0.085*[#   4]+0.085*[#   8]+0.080*[#  19]+0.080*[#  20]+0.080*[#  27]
          +0.080*[#  28]+0.066*[#  11]+0.066*[#  15]+0.066*[#  23]+0.066*[#  31]
          +0.028*[#  12]+0.028*[#  16]+0.028*[#  24]+0.028*[#  32]+0.018*[#   1]
          +0.018*[#   5]+0.018*[#   9]+0.018*[#  13]+0.018*[#  21]+0.018*[#  29]
          +0.009*[#   3]+0.009*[#   7]
    |psi|^2 = 0.991
==== e(   7) =    -6.75353 eV ==== 
     psi = 0.101*[#   3]+0.101*[#   7]+0.084*[#  12]+0.084*[#  16]+0.084*[#  24]
          +0.084*[#  32]+0.050*[#  11]+0.050*[#  15]+0.050*[#  23]+0.050*[#  31]
          +0.036*[#  19]+0.036*[#  20]+0.036*[#  27]+0.036*[#  28]+0.033*[#   4]
          +0.033*[#   8]+0.006*[#   1]+0.006*[#   5]+0.006*[#   9]+0.006*[#  13]
          +0.006*[#  21]+0.006*[#  29]+0.003*[#  17]+0.003*[#  25]
    |psi|^2 = 0.987
==== e(   8) =    -6.07940 eV ==== 
     psi = 0.166*[#  18]+0.166*[#  26]+0.101*[#   2]+0.101*[#   6]+0.101*[#  10]
          +0.101*[#  14]+0.101*[#  22]+0.101*[#  30]
    |psi|^2 = 0.936
==== e(   9) =    -5.13740 eV ==== 
     psi = 0.095*[#   3]+0.095*[#   7]+0.079*[#  12]+0.079*[#  16]+0.079*[#  24]
          +0.079*[#  32]+0.048*[#  11]+0.048*[#  15]+0.048*[#  23]+0.048*[#  31]
          +0.033*[#   1]+0.033*[#   5]+0.033*[#   9]+0.033*[#  13]+0.033*[#  21]
          +0.033*[#  29]+0.033*[#   4]+0.033*[#   8]+0.007*[#  19]+0.007*[#  20]
          +0.007*[#  27]+0.007*[#  28]
    |psi|^2 = 0.993
==== e(  10) =    -4.24203 eV ==== 
     psi = 0.162*[#  18]+0.162*[#  26]+0.108*[#   2]+0.108*[#   6]+0.108*[#  10]
          +0.108*[#  14]+0.108*[#  22]+0.108*[#  30]
    |psi|^2 = 0.973
==== e(  11) =    -4.10195 eV ==== 
     psi = 0.110*[#   3]+0.110*[#   7]+0.090*[#  12]+0.090*[#  16]+0.090*[#  24]
          +0.090*[#  32]+0.049*[#  11]+0.049*[#  15]+0.049*[#  23]+0.049*[#  31]
          +0.029*[#   4]+0.029*[#   8]+0.023*[#   1]+0.023*[#   5]+0.023*[#   9]
          +0.023*[#  13]+0.023*[#  21]+0.023*[#  29]+0.006*[#  17]+0.006*[#  25]
          +0.002*[#  19]+0.002*[#  20]+0.002*[#  27]+0.002*[#  28]
    |psi|^2 = 0.992
==== e(  12) =    -1.55883 eV ==== 
     psi = 0.165*[#   2]+0.165*[#   6]+0.165*[#  10]+0.165*[#  14]+0.165*[#  22]
          +0.165*[#  30]
    |psi|^2 = 0.990
==== e(  13) =    -0.51588 eV ==== 
     psi = 0.172*[#  18]+0.172*[#  26]+0.108*[#   2]+0.108*[#   6]+0.108*[#  10]
          +0.108*[#  14]+0.108*[#  22]+0.108*[#  30]
    |psi|^2 = 0.989
==== e(  14) =     3.16676 eV ==== 
     psi = 0.104*[#  17]+0.104*[#  25]+0.048*[#   1]+0.048*[#   5]+0.048*[#   9]
          +0.048*[#  13]+0.048*[#  21]+0.048*[#  29]+0.037*[#   4]+0.037*[#   8]
          +0.032*[#  11]+0.032*[#  15]+0.032*[#  23]+0.032*[#  31]+0.027*[#  19]
          +0.027*[#  20]+0.027*[#  27]+0.027*[#  28]+0.021*[#  12]+0.021*[#  16]
          +0.021*[#  24]+0.021*[#  32]+0.015*[#   3]+0.015*[#   7]
    |psi|^2 = 0.916
==== e(  15) =     3.48696 eV ==== 
     psi = 0.013*[#   4]+0.013*[#   8]+0.012*[#  11]+0.012*[#  15]+0.012*[#  23]
          +0.012*[#  31]+0.011*[#  12]+0.011*[#  16]+0.011*[#  24]+0.011*[#  32]
          +0.010*[#   3]+0.010*[#   7]+0.005*[#   1]+0.005*[#   5]+0.005*[#   9]
          +0.005*[#  13]+0.005*[#  21]+0.005*[#  29]+0.002*[#  17]+0.002*[#  19]
          +0.002*[#  20]+0.002*[#  25]+0.002*[#  27]+0.002*[#  28]
    |psi|^2 = 0.179
==== e(  16) =     3.63672 eV ==== 
     psi = 0.068*[#  19]+0.068*[#  20]+0.068*[#  27]+0.068*[#  28]+0.048*[#   1]
          +0.048*[#   5]+0.048*[#   9]+0.048*[#  13]+0.048*[#  21]+0.048*[#  29]
          +0.038*[#   4]+0.038*[#   8]+0.036*[#  11]+0.036*[#  15]+0.036*[#  23]
          +0.036*[#  31]+0.033*[#  12]+0.033*[#  16]+0.033*[#  24]+0.033*[#  32]
          +0.031*[#   3]+0.031*[#   7]
    |psi|^2 = 0.974

 k =   0.0000000000  0.5132002393  0.0000000000
==== e(   1) =   -15.43900 eV ==== 
     psi = 0.107*[#  17]+0.107*[#  25]+0.061*[#   1]+0.061*[#   5]+0.061*[#   9]
          +0.061*[#  13]+0.061*[#  21]+0.061*[#  29]+0.034*[#   4]+0.034*[#   8]
          +0.031*[#  11]+0.031*[#  15]+0.031*[#  23]+0.031*[#  31]+0.025*[#  12]
          +0.025*[#  16]+0.025*[#  24]+0.025*[#  32]+0.021*[#   3]+0.021*[#   7]
          +0.014*[#  19]+0.014*[#  20]+0.014*[#  27]+0.014*[#  28]
    |psi|^2 = 0.967
==== e(   2) =   -14.51701 eV ==== 
     psi = 0.077*[#  17]+0.077*[#  25]+0.048*[#   1]+0.048*[#   5]+0.048*[#   9]
          +0.048*[#  13]+0.048*[#  21]+0.048*[#  29]+0.042*[#   4]+0.042*[#   8]
          +0.037*[#  11]+0.037*[#  15]+0.037*[#  23]+0.037*[#  31]+0.035*[#  19]
          +0.035*[#  20]+0.035*[#  27]+0.035*[#  28]+0.027*[#  12]+0.027*[#  16]
          +0.027*[#  24]+0.027*[#  32]+0.022*[#   3]+0.022*[#   7]
    |psi|^2 = 0.968
==== e(   3) =   -12.33939 eV ==== 
     psi = 0.106*[#  19]+0.106*[#  20]+0.106*[#  27]+0.106*[#  28]+0.048*[#   1]
          +0.048*[#   5]+0.048*[#   9]+0.048*[#  13]+0.048*[#  21]+0.048*[#  29]
          +0.029*[#   3]+0.029*[#   7]+0.026*[#  12]+0.026*[#  16]+0.026*[#  24]
          +0.026*[#  32]+0.020*[#  11]+0.020*[#  15]+0.020*[#  23]+0.020*[#  31]
          +0.017*[#   4]+0.017*[#   8]
    |psi|^2 = 0.979
==== e(   4) =   -11.00757 eV ==== 
     psi = 0.052*[#   4]+0.052*[#   8]+0.049*[#  19]+0.049*[#  20]+0.049*[#  27]
          +0.049*[#  28]+0.047*[#  11]+0.047*[#  15]+0.047*[#  23]+0.047*[#  31]
          +0.037*[#  12]+0.037*[#  16]+0.037*[#  24]+0.037*[#  32]+0.037*[#   1]
          +0.037*[#   5]+0.037*[#   9]+0.037*[#  13]+0.037*[#  21]+0.037*[#  29]
          +0.032*[#   3]+0.032*[#   7]+0.029*[#  17]+0.029*[#  25]
    |psi|^2 = 0.979
==== e(   5) =    -8.65693 eV ==== 
     psi = 0.095*[#   4]+0.095*[#   8]+0.082*[#  19]+0.082*[#  20]+0.082*[#  27]
          +0.082*[#  28]+0.073*[#  11]+0.073*[#  15]+0.073*[#  23]+0.073*[#  31]
          +0.029*[#  12]+0.029*[#  16]+0.029*[#  24]+0.029*[#  32]+0.014*[#  17]
          +0.014*[#  25]+0.007*[#   3]+0.007*[#   7]+0.004*[#   1]+0.004*[#   5]
          +0.004*[#   9]+0.004*[#  13]+0.004*[#  21]+0.004*[#  29]
    |psi|^2 = 0.989
==== e(   6) =    -8.36108 eV ==== 
     psi = 0.092*[#   4]+0.092*[#   8]+0.084*[#  19]+0.084*[#  20]+0.084*[#  27]
          +0.084*[#  28]+0.070*[#  11]+0.070*[#  15]+0.070*[#  23]+0.070*[#  31]
          +0.026*[#  12]+0.026*[#  16]+0.026*[#  24]+0.026*[#  32]+0.013*[#   1]
          +0.013*[#   5]+0.013*[#   9]+0.013*[#  13]+0.013*[#  21]+0.013*[#  29]
          +0.004*[#   3]+0.004*[#   7]
    |psi|^2 = 0.991
==== e(   7) =    -6.88587 eV ==== 
     psi = 0.105*[#   3]+0.105*[#   7]+0.085*[#  12]+0.085*[#  16]+0.085*[#  24]
          +0.085*[#  32]+0.047*[#  11]+0.047*[#  15]+0.047*[#  23]+0.047*[#  31]
          +0.034*[#  19]+0.034*[#  20]+0.034*[#  27]+0.034*[#  28]+0.028*[#   4]
          +0.028*[#   8]+0.008*[#   1]+0.008*[#   5]+0.008*[#   9]+0.008*[#  13]
          +0.008*[#  21]+0.008*[#  29]+0.005*[#  17]+0.005*[#  25]
    |psi|^2 = 0.987
==== e(   8) =    -5.84854 eV ==== 
     psi = 0.174*[#  18]+0.174*[#  26]+0.099*[#   2]+0.099*[#   6]+0.099*[#  10]
          +0.099*[#  14]+0.099*[#  22]+0.099*[#  30]
    |psi|^2 = 0.944
==== e(   9) =    -5.40028 eV ==== 
     psi = 0.100*[#   3]+0.100*[#   7]+0.081*[#  12]+0.081*[#  16]+0.081*[#  24]
          +0.081*[#  32]+0.044*[#  11]+0.044*[#  15]+0.044*[#  23]+0.044*[#  31]
          +0.038*[#   1]+0.038*[#   5]+0.038*[#   9]+0.038*[#  13]+0.038*[#  21]
          +0.038*[#  29]+0.026*[#   4]+0.026*[#   8]+0.003*[#  19]+0.003*[#  20]
          +0.003*[#  27]+0.003*[#  28]
    |psi|^2 = 0.993
==== e(  10) =    -4.59317 eV ==== 
     psi = 0.151*[#  18]+0.151*[#  26]+0.111*[#   2]+0.111*[#   6]+0.111*[#  10]
          +0.111*[#  14]+0.111*[#  22]+0.111*[#  30]
    |psi|^2 = 0.966
==== e(  11) =    -4.09402 eV ==== 
     psi = 0.116*[#   3]+0.116*[#   7]+0.094*[#  12]+0.094*[#  16]+0.094*[#  24]
          +0.094*[#  32]+0.049*[#  11]+0.049*[#  15]+0.049*[#  23]+0.049*[#  31]
          +0.027*[#   4]+0.027*[#   8]+0.021*[#   1]+0.021*[#   5]+0.021*[#   9]
          +0.021*[#  13]+0.021*[#  21]+0.021*[#  29]+0.005*[#  17]+0.005*[#  25]
          
    |psi|^2 = 0.991
==== e(  12) =    -1.62447 eV ==== 
     psi = 0.165*[#   2]+0.165*[#   6]+0.165*[#  10]+0.165*[#  14]+0.165*[#  22]
          +0.165*[#  30]
    |psi|^2 = 0.990
==== e(  13) =    -0.56424 eV ==== 
     psi = 0.173*[#  18]+0.173*[#  26]+0.107*[#   2]+0.107*[#   6]+0.107*[#  10]
          +0.107*[#  14]+0.107*[#  22]+0.107*[#  30]
    |psi|^2 = 0.990
==== e(  14) =     3.32037 eV ==== 
     psi = 0.138*[#  17]+0.138*[#  25]+0.091*[#   1]+0.091*[#   5]+0.091*[#   9]
          +0.091*[#  13]+0.091*[#  21]+0.091*[#  29]+0.010*[#   4]+0.010*[#   8]
          +0.009*[#  11]+0.009*[#  15]+0.009*[#  23]+0.009*[#  31]+0.009*[#  12]
          +0.009*[#  16]+0.009*[#  24]+0.009*[#  32]+0.009*[#   3]+0.009*[#   7]
          +0.005*[#  19]+0.005*[#  20]+0.005*[#  27]+0.005*[#  28]
    |psi|^2 = 0.952
==== e(  15) =     3.67802 eV ==== 
     psi = 0.110*[#  17]+0.110*[#  25]+0.045*[#   1]+0.045*[#   5]+0.045*[#   9]
          +0.045*[#  13]+0.045*[#  21]+0.045*[#  29]+0.034*[#   4]+0.034*[#   8]
          +0.027*[#  11]+0.027*[#  15]+0.027*[#  23]+0.027*[#  31]+0.016*[#  19]
          +0.016*[#  20]+0.016*[#  27]+0.016*[#  28]+0.013*[#  12]+0.013*[#  16]
          +0.013*[#  24]+0.013*[#  32]+0.006*[#   3]+0.006*[#   7]
    |psi|^2 = 0.795
==== e(  16) =     3.84008 eV ==== 
     psi = 0.020*[#   4]+0.020*[#   8]+0.018*[#  11]+0.018*[#  15]+0.018*[#  23]
          +0.018*[#  31]+0.013*[#  12]+0.013*[#  16]+0.013*[#  24]+0.013*[#  32]
          +0.013*[#  17]+0.013*[#  25]+0.011*[#   3]+0.011*[#   7]+0.010*[#   1]
          +0.010*[#   5]+0.010*[#   9]+0.010*[#  13]+0.010*[#  21]+0.010*[#  29]
          
    |psi|^2 = 0.275

 k =   0.0000000000 -0.5773502692  0.0000000000
==== e(   1) =   -15.37809 eV ==== 
     psi = 0.106*[#  17]+0.106*[#  25]+0.058*[#   1]+0.058*[#   5]+0.058*[#   9]
          +0.058*[#  13]+0.058*[#  21]+0.058*[#  29]+0.037*[#   4]+0.037*[#   8]
          +0.033*[#  11]+0.033*[#  15]+0.033*[#  23]+0.033*[#  31]+0.026*[#  12]
          +0.026*[#  16]+0.026*[#  24]+0.026*[#  32]+0.022*[#   3]+0.022*[#   7]
          +0.013*[#  19]+0.013*[#  20]+0.013*[#  27]+0.013*[#  28]
    |psi|^2 = 0.966
==== e(   2) =   -14.60131 eV ==== 
     psi = 0.077*[#  17]+0.077*[#  25]+0.050*[#   1]+0.050*[#   5]+0.050*[#   9]
          +0.050*[#  13]+0.050*[#  21]+0.050*[#  29]+0.039*[#   4]+0.039*[#   8]
          +0.036*[#  19]+0.036*[#  20]+0.036*[#  27]+0.036*[#  28]+0.035*[#  11]
          +0.035*[#  15]+0.035*[#  23]+0.035*[#  31]+0.026*[#  12]+0.026*[#  16]
          +0.026*[#  24]+0.026*[#  32]+0.022*[#   3]+0.022*[#   7]
    |psi|^2 = 0.968
==== e(   3) =   -12.34762 eV ==== 
     psi = 0.106*[#  19]+0.106*[#  20]+0.106*[#  27]+0.106*[#  28]+0.048*[#   1]
          +0.048*[#   5]+0.048*[#   9]+0.048*[#  13]+0.048*[#  21]+0.048*[#  29]
          +0.028*[#   3]+0.028*[#   7]+0.025*[#  12]+0.025*[#  16]+0.025*[#  24]
          +0.025*[#  32]+0.019*[#  11]+0.019*[#  15]+0.019*[#  23]+0.019*[#  31]
          +0.016*[#   4]+0.016*[#   8]
    |psi|^2 = 0.979
==== e(   4) =   -11.01770 eV ==== 
     psi = 0.052*[#   4]+0.052*[#   8]+0.048*[#  19]+0.048*[#  20]+0.048*[#  27]
          +0.048*[#  28]+0.047*[#  11]+0.047*[#  15]+0.047*[#  23]+0.047*[#  31]
          +0.037*[#  12]+0.037*[#  16]+0.037*[#  24]+0.037*[#  32]+0.037*[#   1]
          +0.037*[#   5]+0.037*[#   9]+0.037*[#  13]+0.037*[#  21]+0.037*[#  29]
          +0.032*[#   3]+0.032*[#   7]+0.029*[#  17]+0.029*[#  25]
    |psi|^2 = 0.979
==== e(   5) =    -8.55326 eV ==== 
     psi = 0.100*[#   4]+0.100*[#   8]+0.085*[#  19]+0.085*[#  20]+0.085*[#  27]
          +0.085*[#  28]+0.075*[#  11]+0.075*[#  15]+0.075*[#  23]+0.075*[#  31]
          +0.026*[#  12]+0.026*[#  16]+0.026*[#  24]+0.026*[#  32]+0.013*[#  17]
          +0.013*[#  25]+0.002*[#   1]+0.002*[#   5]+0.002*[#   9]+0.002*[#  13]
          +0.002*[#  21]+0.002*[#  29]+0.002*[#   3]+0.002*[#   7]
    |psi|^2 = 0.989
==== e(   6) =    -8.29582 eV ==== 
     psi = 0.095*[#   4]+0.095*[#   8]+0.086*[#  19]+0.086*[#  20]+0.086*[#  27]
          +0.086*[#  28]+0.072*[#  11]+0.072*[#  15]+0.072*[#  23]+0.072*[#  31]
          +0.025*[#  12]+0.025*[#  16]+0.025*[#  24]+0.025*[#  32]+0.011*[#   1]
          +0.011*[#   5]+0.011*[#   9]+0.011*[#  13]+0.011*[#  21]+0.011*[#  29]
          +0.002*[#   3]+0.002*[#   7]
    |psi|^2 = 0.991
==== e(   7) =    -6.95474 eV ==== 
     psi = 0.108*[#   3]+0.108*[#   7]+0.087*[#  12]+0.087*[#  16]+0.087*[#  24]
          +0.087*[#  32]+0.045*[#  11]+0.045*[#  15]+0.045*[#  23]+0.045*[#  31]
          +0.031*[#  19]+0.031*[#  20]+0.031*[#  27]+0.031*[#  28]+0.024*[#   4]
          +0.024*[#   8]+0.010*[#   1]+0.010*[#   5]+0.010*[#   9]+0.010*[#  13]
          +0.010*[#  21]+0.010*[#  29]+0.006*[#  17]+0.006*[#  25]
    |psi|^2 = 0.987
==== e(   8) =    -5.73430 eV ==== 
     psi = 0.179*[#  18]+0.179*[#  26]+0.098*[#   2]+0.098*[#   6]+0.098*[#  10]
          +0.098*[#  14]+0.098*[#  22]+0.098*[#  30]
    |psi|^2 = 0.948
==== e(   9) =    -5.49602 eV ==== 
     psi = 0.103*[#   3]+0.103*[#   7]+0.083*[#  12]+0.083*[#  16]+0.083*[#  24]
          +0.083*[#  32]+0.043*[#  11]+0.043*[#  15]+0.043*[#  23]+0.043*[#  31]
          +0.040*[#   1]+0.040*[#   5]+0.040*[#   9]+0.040*[#  13]+0.040*[#  21]
          +0.040*[#  29]+0.023*[#   4]+0.023*[#   8]
    |psi|^2 = 0.993
==== e(  10) =    -4.74762 eV ==== 
     psi = 0.145*[#  18]+0.145*[#  26]+0.112*[#   2]+0.112*[#   6]+0.112*[#  10]
          +0.112*[#  14]+0.112*[#  22]+0.112*[#  30]
    |psi|^2 = 0.962
==== e(  11) =    -4.08148 eV ==== 
     psi = 0.118*[#   3]+0.118*[#   7]+0.095*[#  12]+0.095*[#  16]+0.095*[#  24]
          +0.095*[#  32]+0.049*[#  11]+0.049*[#  15]+0.049*[#  23]+0.049*[#  31]
          +0.026*[#   4]+0.026*[#   8]+0.020*[#   1]+0.020*[#   5]+0.020*[#   9]
          +0.020*[#  13]+0.020*[#  21]+0.020*[#  29]+0.004*[#  17]+0.004*[#  25]
          
    |psi|^2 = 0.991
==== e(  12) =    -1.64637 eV ==== 
     psi = 0.165*[#   2]+0.165*[#   6]+0.165*[#  10]+0.165*[#  14]+0.165*[#  22]
          +0.165*[#  30]
    |psi|^2 = 0.990
==== e(  13) =    -0.58061 eV ==== 
     psi = 0.174*[#  18]+0.174*[#  26]+0.107*[#   2]+0.107*[#   6]+0.107*[#  10]
          +0.107*[#  14]+0.107*[#  22]+0.107*[#  30]
    |psi|^2 = 0.990
==== e(  14) =     3.27353 eV ==== 
     psi = 0.139*[#  17]+0.139*[#  25]+0.103*[#   1]+0.103*[#   5]+0.103*[#   9]
          +0.103*[#  13]+0.103*[#  21]+0.103*[#  29]+0.009*[#   3]+0.009*[#   7]
          +0.008*[#  12]+0.008*[#  16]+0.008*[#  24]+0.008*[#  32]+0.004*[#  11]
          +0.004*[#  15]+0.004*[#  23]+0.004*[#  31]+0.002*[#   4]+0.002*[#   8]
          
    |psi|^2 = 0.966
==== e(  15) =     3.74927 eV ==== 
     psi = 0.129*[#  17]+0.129*[#  25]+0.045*[#   4]+0.045*[#   8]+0.038*[#   1]
          +0.038*[#   5]+0.038*[#   9]+0.038*[#  13]+0.038*[#  21]+0.038*[#  29]
          +0.034*[#  11]+0.034*[#  15]+0.034*[#  23]+0.034*[#  31]+0.014*[#  19]
          +0.014*[#  20]+0.014*[#  27]+0.014*[#  28]+0.012*[#  12]+0.012*[#  16]
          +0.012*[#  24]+0.012*[#  32]+0.001*[#   3]+0.001*[#   7]
    |psi|^2 = 0.821
==== e(  16) =     4.15745 eV ==== 
     psi = 0.023*[#   4]+0.023*[#   8]+0.018*[#  11]+0.018*[#  15]+0.018*[#  23]
          +0.018*[#  31]+0.012*[#  17]+0.012*[#  25]+0.010*[#   1]+0.010*[#   5]
          +0.010*[#   9]+0.010*[#  13]+0.010*[#  21]+0.010*[#  29]+0.007*[#  12]
          +0.007*[#  16]+0.007*[#  24]+0.007*[#  32]+0.002*[#   3]+0.002*[#   7]
          
    |psi|^2 = 0.239

 k =   0.0555555556  0.0962250449  0.0000000000
==== e(   1) =   -16.15172 eV ==== 
     psi = 0.139*[#  17]+0.139*[#  25]+0.102*[#   1]+0.102*[#   5]+0.102*[#   9]
          +0.102*[#  13]+0.102*[#  21]+0.102*[#  29]+0.010*[#   3]+0.010*[#   7]
          +0.008*[#  12]+0.008*[#  16]+0.008*[#  24]+0.008*[#  32]+0.004*[#  11]
          +0.004*[#  15]+0.004*[#  23]+0.004*[#  31]+0.003*[#   4]+0.003*[#   8]
          +0.002*[#  19]+0.002*[#  20]+0.002*[#  27]+0.002*[#  28]
    |psi|^2 = 0.973
==== e(   2) =   -12.65540 eV ==== 
     psi = 0.074*[#   4]+0.074*[#   8]+0.066*[#  17]+0.066*[#  25]+0.061*[#  11]
          +0.061*[#  15]+0.061*[#  23]+0.061*[#  31]+0.042*[#  19]+0.042*[#  20]
          +0.042*[#  27]+0.042*[#  28]+0.033*[#  12]+0.033*[#  16]+0.033*[#  24]
          +0.033*[#  32]+0.020*[#   1]+0.020*[#   5]+0.020*[#   9]+0.020*[#  13]
          +0.020*[#  21]+0.020*[#  29]+0.019*[#   3]+0.019*[#   7]
    |psi|^2 = 0.979
==== e(   3) =   -12.04505 eV ==== 
     psi = 0.099*[#  19]+0.099*[#  20]+0.099*[#  27]+0.099*[#  28]+0.035*[#   1]
          +0.035*[#   5]+0.035*[#   9]+0.035*[#  13]+0.035*[#  21]+0.035*[#  29]
          +0.035*[#   3]+0.035*[#   7]+0.033*[#  12]+0.033*[#  16]+0.033*[#  24]
          +0.033*[#  32]+0.029*[#  11]+0.029*[#  15]+0.029*[#  23]+0.029*[#  31]
          +0.027*[#   4]+0.027*[#   8]
    |psi|^2 = 0.982
==== e(   4) =   -11.45499 eV ==== 
     psi = 0.078*[#   4]+0.078*[#   8]+0.062*[#  11]+0.062*[#  15]+0.062*[#  23]
          +0.062*[#  31]+0.058*[#  19]+0.058*[#  20]+0.058*[#  27]+0.058*[#  28]
          +0.051*[#  17]+0.051*[#  25]+0.031*[#  12]+0.031*[#  16]+0.031*[#  24]
          +0.031*[#  32]+0.016*[#   1]+0.016*[#   5]+0.016*[#   9]+0.016*[#  13]
          +0.016*[#  21]+0.016*[#  29]+0.015*[#   3]+0.015*[#   7]
    |psi|^2 = 0.984
==== e(   5) =    -9.82186 eV ==== 
     psi = 0.065*[#  19]+0.065*[#  20]+0.065*[#  27]+0.065*[#  28]+0.048*[#   4]
          +0.048*[#   8]+0.045*[#   1]+0.045*[#   5]+0.045*[#   9]+0.045*[#  13]
          +0.045*[#  21]+0.045*[#  29]+0.043*[#  11]+0.043*[#  15]+0.043*[#  23]
          +0.043*[#  31]+0.033*[#  12]+0.033*[#  16]+0.033*[#  24]+0.033*[#  32]
          +0.028*[#   3]+0.028*[#   7]+0.001*[#  17]+0.001*[#  25]
    |psi|^2 = 0.986
==== e(   6) =    -9.65018 eV ==== 
     psi = 0.070*[#  19]+0.070*[#  20]+0.070*[#  27]+0.070*[#  28]+0.053*[#   4]
          +0.053*[#   8]+0.045*[#  11]+0.045*[#  15]+0.045*[#  23]+0.045*[#  31]
          +0.044*[#   1]+0.044*[#   5]+0.044*[#   9]+0.044*[#  13]+0.044*[#  21]
          +0.044*[#  29]+0.029*[#  12]+0.029*[#  16]+0.029*[#  24]+0.029*[#  32]
          +0.020*[#   3]+0.020*[#   7]
    |psi|^2 = 0.988
==== e(   7) =    -7.45159 eV ==== 
     psi = 0.134*[#   3]+0.134*[#   7]+0.102*[#  12]+0.102*[#  16]+0.102*[#  24]
          +0.102*[#  32]+0.038*[#  11]+0.038*[#  15]+0.038*[#  23]+0.038*[#  31]
          +0.019*[#   1]+0.019*[#   5]+0.019*[#   9]+0.019*[#  13]+0.019*[#  21]
          +0.019*[#  29]+0.006*[#   4]+0.006*[#   8]+0.005*[#  19]+0.005*[#  20]
          +0.005*[#  27]+0.005*[#  28]+0.005*[#  17]+0.005*[#  25]
    |psi|^2 = 0.982
==== e(   8) =    -6.99689 eV ==== 
     psi = 0.152*[#  18]+0.152*[#  26]+0.100*[#   2]+0.100*[#   6]+0.100*[#  10]
          +0.100*[#  14]+0.100*[#  22]+0.100*[#  30]
    |psi|^2 = 0.903
==== e(   9) =    -2.63297 eV ==== 
     psi = 0.075*[#   4]+0.075*[#   8]+0.075*[#   3]+0.075*[#   7]+0.075*[#  11]
          +0.075*[#  12]+0.075*[#  15]+0.075*[#  16]+0.075*[#  23]+0.075*[#  24]
          +0.075*[#  31]+0.075*[#  32]+0.010*[#  19]+0.010*[#  20]+0.010*[#  27]
          +0.010*[#  28]+0.008*[#   1]+0.008*[#   5]+0.008*[#   9]+0.008*[#  13]
          +0.008*[#  21]+0.008*[#  29]
    |psi|^2 = 0.995
==== e(  10) =    -2.54488 eV ==== 
     psi = 0.076*[#   4]+0.076*[#   8]+0.076*[#  11]+0.076*[#  15]+0.076*[#  23]
          +0.076*[#  31]+0.076*[#  12]+0.076*[#  16]+0.076*[#  24]+0.076*[#  32]
          +0.076*[#   3]+0.076*[#   7]+0.011*[#  19]+0.011*[#  20]+0.011*[#  27]
          +0.011*[#  28]+0.006*[#   1]+0.006*[#   5]+0.006*[#   9]+0.006*[#  13]
          +0.006*[#  21]+0.006*[#  29]
    |psi|^2 = 0.995
==== e(  11) =    -1.45247 eV ==== 
     psi = 0.269*[#  18]+0.269*[#  26]+0.075*[#   2]+0.075*[#   6]+0.075*[#  10]
          +0.075*[#  14]+0.075*[#  22]+0.075*[#  30]
    |psi|^2 = 0.990
==== e(  12) =    -0.58533 eV ==== 
     psi = 0.164*[#   2]+0.164*[#   6]+0.164*[#  10]+0.164*[#  14]+0.164*[#  22]
          +0.164*[#  30]+0.002*[#  18]+0.002*[#  26]
    |psi|^2 = 0.987
==== e(  13) =     0.12144 eV ==== 
     psi = 0.166*[#  18]+0.166*[#  26]+0.109*[#   2]+0.109*[#   6]+0.109*[#  10]
          +0.109*[#  14]+0.109*[#  22]+0.109*[#  30]
    |psi|^2 = 0.986
==== e(  14) =     0.54464 eV ==== 
     psi = 0.076*[#  19]+0.076*[#  20]+0.076*[#  27]+0.076*[#  28]+0.059*[#   3]
          +0.059*[#   7]+0.050*[#  12]+0.050*[#  16]+0.050*[#  24]+0.050*[#  32]
          +0.032*[#  11]+0.032*[#  15]+0.032*[#  23]+0.032*[#  31]+0.031*[#   1]
          +0.031*[#   5]+0.031*[#   9]+0.031*[#  13]+0.031*[#  21]+0.031*[#  29]
          +0.023*[#   4]+0.023*[#   8]+0.005*[#  17]+0.005*[#  25]
    |psi|^2 = 0.987
==== e(  15) =     0.65113 eV ==== 
     psi = 0.078*[#  19]+0.078*[#  20]+0.078*[#  27]+0.078*[#  28]+0.060*[#   3]
          +0.060*[#   7]+0.051*[#  12]+0.051*[#  16]+0.051*[#  24]+0.051*[#  32]
          +0.033*[#  11]+0.033*[#  15]+0.033*[#  23]+0.033*[#  31]+0.028*[#   1]
          +0.028*[#   5]+0.028*[#   9]+0.028*[#  13]+0.028*[#  21]+0.028*[#  29]
          +0.024*[#   4]+0.024*[#   8]
    |psi|^2 = 0.988
==== e(  16) =     0.80261 eV ==== 
     psi = 0.160*[#   2]+0.160*[#   6]+0.160*[#  10]+0.160*[#  14]+0.160*[#  22]
          +0.160*[#  30]+0.009*[#  18]+0.009*[#  26]
    |psi|^2 = 0.981

 k =   0.0555555556  0.1603750748  0.0000000000
==== e(   1) =   -16.09683 eV ==== 
     psi = 0.135*[#  17]+0.135*[#  25]+0.097*[#   1]+0.097*[#   5]+0.097*[#   9]
          +0.097*[#  13]+0.097*[#  21]+0.097*[#  29]+0.012*[#   3]+0.012*[#   7]
          +0.010*[#  12]+0.010*[#  16]+0.010*[#  24]+0.010*[#  32]+0.007*[#  11]
          +0.007*[#  15]+0.007*[#  23]+0.007*[#  31]+0.006*[#   4]+0.006*[#   8]
          +0.003*[#  19]+0.003*[#  20]+0.003*[#  27]+0.003*[#  28]
    |psi|^2 = 0.972
==== e(   2) =   -12.97258 eV ==== 
     psi = 0.070*[#   4]+0.070*[#   8]+0.066*[#  17]+0.066*[#  25]+0.058*[#  11]
          +0.058*[#  15]+0.058*[#  23]+0.058*[#  31]+0.040*[#  19]+0.040*[#  20]
          +0.040*[#  27]+0.040*[#  28]+0.033*[#  12]+0.033*[#  16]+0.033*[#  24]
          +0.033*[#  32]+0.023*[#   1]+0.023*[#   5]+0.023*[#   9]+0.023*[#  13]
          +0.023*[#  21]+0.023*[#  29]+0.021*[#   3]+0.021*[#   7]
    |psi|^2 = 0.976
==== e(   3) =   -12.09945 eV ==== 
     psi = 0.100*[#  19]+0.100*[#  20]+0.100*[#  27]+0.100*[#  28]+0.038*[#   1]
          +0.038*[#   5]+0.038*[#   9]+0.038*[#  13]+0.038*[#  21]+0.038*[#  29]
          +0.034*[#   3]+0.034*[#   7]+0.032*[#  12]+0.032*[#  16]+0.032*[#  24]
          +0.032*[#  32]+0.027*[#  11]+0.027*[#  15]+0.027*[#  23]+0.027*[#  31]
          +0.025*[#   4]+0.025*[#   8]
    |psi|^2 = 0.981
==== e(   4) =   -11.18395 eV ==== 
     psi = 0.079*[#   4]+0.079*[#   8]+0.062*[#  11]+0.062*[#  15]+0.062*[#  23]
          +0.062*[#  31]+0.060*[#  19]+0.060*[#  20]+0.060*[#  27]+0.060*[#  28]
          +0.049*[#  17]+0.049*[#  25]+0.029*[#  12]+0.029*[#  16]+0.029*[#  24]
          +0.029*[#  32]+0.016*[#   1]+0.016*[#   5]+0.016*[#   9]+0.016*[#  13]
          +0.016*[#  21]+0.016*[#  29]+0.013*[#   3]+0.013*[#   7]
    |psi|^2 = 0.985
==== e(   5) =    -9.86182 eV ==== 
     psi = 0.061*[#  19]+0.061*[#  20]+0.061*[#  27]+0.061*[#  28]+0.046*[#   4]
          +0.046*[#   8]+0.043*[#  11]+0.043*[#  15]+0.043*[#  23]+0.043*[#  31]
          +0.042*[#   1]+0.042*[#   5]+0.042*[#   9]+0.042*[#  13]+0.042*[#  21]
          +0.042*[#  29]+0.037*[#  12]+0.037*[#  16]+0.037*[#  24]+0.037*[#  32]
          +0.034*[#   3]+0.034*[#   7]+0.003*[#  17]+0.003*[#  25]
    |psi|^2 = 0.985
==== e(   6) =    -9.50776 eV ==== 
     psi = 0.070*[#  19]+0.070*[#  20]+0.070*[#  27]+0.070*[#  28]+0.057*[#   4]
          +0.057*[#   8]+0.048*[#  11]+0.048*[#  15]+0.048*[#  23]+0.048*[#  31]
          +0.040*[#   1]+0.040*[#   5]+0.040*[#   9]+0.040*[#  13]+0.040*[#  21]
          +0.040*[#  29]+0.029*[#  12]+0.029*[#  16]+0.029*[#  24]+0.029*[#  32]
          +0.020*[#   3]+0.020*[#   7]
    |psi|^2 = 0.988
==== e(   7) =    -7.24916 eV ==== 
     psi = 0.127*[#   3]+0.127*[#   7]+0.098*[#  12]+0.098*[#  16]+0.098*[#  24]
          +0.098*[#  32]+0.040*[#  11]+0.040*[#  15]+0.040*[#  23]+0.040*[#  31]
          +0.017*[#   1]+0.017*[#   5]+0.017*[#   9]+0.017*[#  13]+0.017*[#  21]
          +0.017*[#  29]+0.012*[#   4]+0.012*[#   8]+0.011*[#  19]+0.011*[#  20]
          +0.011*[#  27]+0.011*[#  28]+0.004*[#  17]+0.004*[#  25]
    |psi|^2 = 0.984
==== e(   8) =    -6.91243 eV ==== 
     psi = 0.153*[#  18]+0.153*[#  26]+0.100*[#   2]+0.100*[#   6]+0.100*[#  10]
          +0.100*[#  14]+0.100*[#  22]+0.100*[#  30]
    |psi|^2 = 0.907
==== e(   9) =    -3.09356 eV ==== 
     psi = 0.077*[#   3]+0.077*[#   7]+0.074*[#  12]+0.074*[#  16]+0.074*[#  24]
          +0.074*[#  32]+0.068*[#  11]+0.068*[#  15]+0.068*[#  23]+0.068*[#  31]
          +0.065*[#   4]+0.065*[#   8]+0.014*[#  19]+0.014*[#  20]+0.014*[#  27]
          +0.014*[#  28]+0.013*[#   1]+0.013*[#   5]+0.013*[#   9]+0.013*[#  13]
          +0.013*[#  21]+0.013*[#  29]
    |psi|^2 = 0.995
==== e(  10) =    -2.91931 eV ==== 
     psi = 0.078*[#   3]+0.078*[#   7]+0.075*[#  12]+0.075*[#  16]+0.075*[#  24]
          +0.075*[#  32]+0.070*[#  11]+0.070*[#  15]+0.070*[#  23]+0.070*[#  31]
          +0.067*[#   4]+0.067*[#   8]+0.016*[#  19]+0.016*[#  20]+0.016*[#  27]
          +0.016*[#  28]+0.010*[#   1]+0.010*[#   5]+0.010*[#   9]+0.010*[#  13]
          +0.010*[#  21]+0.010*[#  29]
    |psi|^2 = 0.995
==== e(  11) =    -1.97880 eV ==== 
     psi = 0.234*[#  18]+0.234*[#  26]+0.087*[#   2]+0.087*[#   6]+0.087*[#  10]
          +0.087*[#  14]+0.087*[#  22]+0.087*[#  30]
    |psi|^2 = 0.990
==== e(  12) =    -0.89512 eV ==== 
     psi = 0.163*[#   2]+0.163*[#   6]+0.163*[#  10]+0.163*[#  14]+0.163*[#  22]
          +0.163*[#  30]+0.006*[#  18]+0.006*[#  26]
    |psi|^2 = 0.989
==== e(  13) =     0.14541 eV ==== 
     psi = 0.158*[#  18]+0.158*[#  26]+0.112*[#   2]+0.112*[#   6]+0.112*[#  10]
          +0.112*[#  14]+0.112*[#  22]+0.112*[#  30]
    |psi|^2 = 0.986
==== e(  14) =     0.95271 eV ==== 
     psi = 0.068*[#  19]+0.068*[#  20]+0.068*[#  27]+0.068*[#  28]+0.055*[#   3]
          +0.055*[#   7]+0.049*[#  12]+0.049*[#  16]+0.049*[#  24]+0.049*[#  32]
          +0.036*[#  11]+0.036*[#  15]+0.036*[#  23]+0.036*[#  31]+0.031*[#   1]
          +0.031*[#   5]+0.031*[#   9]+0.031*[#  13]+0.031*[#  21]+0.031*[#  29]
          +0.029*[#   4]+0.029*[#   8]+0.011*[#  17]+0.011*[#  25]
    |psi|^2 = 0.984
==== e(  15) =     1.12581 eV ==== 
     psi = 0.154*[#   2]+0.154*[#   6]+0.154*[#  10]+0.154*[#  14]+0.154*[#  22]
          +0.154*[#  30]+0.026*[#  18]+0.026*[#  26]
    |psi|^2 = 0.975
==== e(  16) =     1.18619 eV ==== 
     psi = 0.072*[#  19]+0.072*[#  20]+0.072*[#  27]+0.072*[#  28]+0.058*[#   3]
          +0.058*[#   7]+0.052*[#  12]+0.052*[#  16]+0.052*[#  24]+0.052*[#  32]
          +0.039*[#  11]+0.039*[#  15]+0.039*[#  23]+0.039*[#  31]+0.032*[#   4]
          +0.032*[#   8]+0.025*[#   1]+0.025*[#   5]+0.025*[#   9]+0.025*[#  13]
          +0.025*[#  21]+0.025*[#  29]
    |psi|^2 = 0.985

 k =   0.0555555556  0.2245251047  0.0000000000
==== e(   1) =   -16.01547 eV ==== 
     psi = 0.130*[#  17]+0.130*[#  25]+0.091*[#   1]+0.091*[#   5]+0.091*[#   9]
          +0.091*[#  13]+0.091*[#  21]+0.091*[#  29]+0.014*[#   3]+0.014*[#   7]
          +0.013*[#  12]+0.013*[#  16]+0.013*[#  24]+0.013*[#  32]+0.011*[#  11]
          +0.011*[#  15]+0.011*[#  23]+0.011*[#  31]+0.010*[#   4]+0.010*[#   8]
          +0.006*[#  19]+0.006*[#  20]+0.006*[#  27]+0.006*[#  28]
    |psi|^2 = 0.972
==== e(   2) =   -13.29777 eV ==== 
     psi = 0.068*[#  17]+0.068*[#  25]+0.065*[#   4]+0.065*[#   8]+0.054*[#  11]
          +0.054*[#  15]+0.054*[#  23]+0.054*[#  31]+0.039*[#  19]+0.039*[#  20]
          +0.039*[#  27]+0.039*[#  28]+0.033*[#  12]+0.033*[#  16]+0.033*[#  24]
          +0.033*[#  32]+0.027*[#   1]+0.027*[#   5]+0.027*[#   9]+0.027*[#  13]
          +0.027*[#  21]+0.027*[#  29]+0.022*[#   3]+0.022*[#   7]
    |psi|^2 = 0.974
==== e(   3) =   -12.16691 eV ==== 
     psi = 0.101*[#  19]+0.101*[#  20]+0.101*[#  27]+0.101*[#  28]+0.041*[#   1]
          +0.041*[#   5]+0.041*[#   9]+0.041*[#  13]+0.041*[#  21]+0.041*[#  29]
          +0.033*[#   3]+0.033*[#   7]+0.030*[#  12]+0.030*[#  16]+0.030*[#  24]
          +0.030*[#  32]+0.025*[#  11]+0.025*[#  15]+0.025*[#  23]+0.025*[#  31]
          +0.023*[#   4]+0.023*[#   8]
    |psi|^2 = 0.981
==== e(   4) =   -10.96999 eV ==== 
     psi = 0.076*[#   4]+0.076*[#   8]+0.061*[#  19]+0.061*[#  20]+0.061*[#  27]
          +0.061*[#  28]+0.060*[#  11]+0.060*[#  15]+0.060*[#  23]+0.060*[#  31]
          +0.044*[#  17]+0.044*[#  25]+0.029*[#  12]+0.029*[#  16]+0.029*[#  24]
          +0.029*[#  32]+0.020*[#   1]+0.020*[#   5]+0.020*[#   9]+0.020*[#  13]
          +0.020*[#  21]+0.020*[#  29]+0.013*[#   3]+0.013*[#   7]
    |psi|^2 = 0.985
==== e(   5) =    -9.83726 eV ==== 
     psi = 0.059*[#  19]+0.059*[#  20]+0.059*[#  27]+0.059*[#  28]+0.049*[#   4]
          +0.049*[#   8]+0.047*[#  11]+0.047*[#  15]+0.047*[#  23]+0.047*[#  31]
          +0.041*[#  12]+0.041*[#  16]+0.041*[#  24]+0.041*[#  32]+0.038*[#   3]
          +0.038*[#   7]+0.035*[#   1]+0.035*[#   5]+0.035*[#   9]+0.035*[#  13]
          +0.035*[#  21]+0.035*[#  29]+0.006*[#  17]+0.006*[#  25]
    |psi|^2 = 0.984
==== e(   6) =    -9.31228 eV ==== 
     psi = 0.071*[#  19]+0.071*[#  20]+0.071*[#  27]+0.071*[#  28]+0.063*[#   4]
          +0.063*[#   8]+0.052*[#  11]+0.052*[#  15]+0.052*[#  23]+0.052*[#  31]
          +0.035*[#   1]+0.035*[#   5]+0.035*[#   9]+0.035*[#  13]+0.035*[#  21]
          +0.035*[#  29]+0.030*[#  12]+0.030*[#  16]+0.030*[#  24]+0.030*[#  32]
          +0.019*[#   3]+0.019*[#   7]
    |psi|^2 = 0.989
==== e(   7) =    -7.01531 eV ==== 
     psi = 0.120*[#   3]+0.120*[#   7]+0.094*[#  12]+0.094*[#  16]+0.094*[#  24]
          +0.094*[#  32]+0.044*[#  11]+0.044*[#  15]+0.044*[#  23]+0.044*[#  31]
          +0.018*[#   4]+0.018*[#   8]+0.017*[#  19]+0.017*[#  20]+0.017*[#  27]
          +0.017*[#  28]+0.014*[#   1]+0.014*[#   5]+0.014*[#   9]+0.014*[#  13]
          +0.014*[#  21]+0.014*[#  29]+0.002*[#  17]+0.002*[#  25]
    |psi|^2 = 0.985
==== e(   8) =    -6.78666 eV ==== 
     psi = 0.154*[#  18]+0.154*[#  26]+0.100*[#   2]+0.100*[#   6]+0.100*[#  10]
          +0.100*[#  14]+0.100*[#  22]+0.100*[#  30]
    |psi|^2 = 0.911
==== e(   9) =    -3.59584 eV ==== 
     psi = 0.080*[#   3]+0.080*[#   7]+0.074*[#  12]+0.074*[#  16]+0.074*[#  24]
          +0.074*[#  32]+0.063*[#  11]+0.063*[#  15]+0.063*[#  23]+0.063*[#  31]
          +0.057*[#   4]+0.057*[#   8]+0.018*[#   1]+0.018*[#   5]+0.018*[#   9]
          +0.018*[#  13]+0.018*[#  21]+0.018*[#  29]+0.015*[#  19]+0.015*[#  20]
          +0.015*[#  27]+0.015*[#  28]+0.001*[#  17]+0.001*[#  25]
    |psi|^2 = 0.995
==== e(  10) =    -3.32799 eV ==== 
     psi = 0.082*[#   3]+0.082*[#   7]+0.076*[#  12]+0.076*[#  16]+0.076*[#  24]
          +0.076*[#  32]+0.064*[#  11]+0.064*[#  15]+0.064*[#  23]+0.064*[#  31]
          +0.057*[#   4]+0.057*[#   8]+0.017*[#  19]+0.017*[#  20]+0.017*[#  27]
          +0.017*[#  28]+0.014*[#   1]+0.014*[#   5]+0.014*[#   9]+0.014*[#  13]
          +0.014*[#  21]+0.014*[#  29]+0.002*[#  17]+0.002*[#  25]
    |psi|^2 = 0.995
==== e(  11) =    -2.52567 eV ==== 
     psi = 0.211*[#  18]+0.211*[#  26]+0.095*[#   2]+0.095*[#   6]+0.095*[#  10]
          +0.095*[#  14]+0.095*[#  22]+0.095*[#  30]
    |psi|^2 = 0.990
==== e(  12) =    -1.16704 eV ==== 
     psi = 0.162*[#   2]+0.162*[#   6]+0.162*[#  10]+0.162*[#  14]+0.162*[#  22]
          +0.162*[#  30]+0.010*[#  18]+0.010*[#  26]
    |psi|^2 = 0.990
==== e(  13) =     0.06548 eV ==== 
     psi = 0.151*[#  18]+0.151*[#  26]+0.114*[#   2]+0.114*[#   6]+0.114*[#  10]
          +0.114*[#  14]+0.114*[#  22]+0.114*[#  30]
    |psi|^2 = 0.987
==== e(  14) =     1.42410 eV ==== 
     psi = 0.061*[#  19]+0.061*[#  20]+0.061*[#  27]+0.061*[#  28]+0.050*[#   3]
          +0.050*[#   7]+0.046*[#  12]+0.046*[#  16]+0.046*[#  24]+0.046*[#  32]
          +0.038*[#  11]+0.038*[#  15]+0.038*[#  23]+0.038*[#  31]+0.034*[#   4]
          +0.034*[#   8]+0.032*[#   1]+0.032*[#   5]+0.032*[#   9]+0.032*[#  13]
          +0.032*[#  21]+0.032*[#  29]+0.020*[#  17]+0.020*[#  25]
    |psi|^2 = 0.980
==== e(  15) =     1.58546 eV ==== 
     psi = 0.148*[#   2]+0.148*[#   6]+0.148*[#  10]+0.148*[#  14]+0.148*[#  22]
          +0.148*[#  30]+0.040*[#  18]+0.040*[#  26]
    |psi|^2 = 0.970
==== e(  16) =     1.79995 eV ==== 
     psi = 0.069*[#  19]+0.069*[#  20]+0.069*[#  27]+0.069*[#  28]+0.055*[#   3]
          +0.055*[#   7]+0.050*[#  12]+0.050*[#  16]+0.050*[#  24]+0.050*[#  32]
          +0.042*[#  11]+0.042*[#  15]+0.042*[#  23]+0.042*[#  31]+0.038*[#   4]
          +0.038*[#   8]+0.025*[#   1]+0.025*[#   5]+0.025*[#   9]+0.025*[#  13]
          +0.025*[#  21]+0.025*[#  29]+0.001*[#  17]+0.001*[#  25]
    |psi|^2 = 0.982

 k =   0.0555555556  0.2886751346  0.0000000000
==== e(   1) =   -15.90918 eV ==== 
     psi = 0.123*[#  17]+0.123*[#  25]+0.084*[#   1]+0.084*[#   5]+0.084*[#   9]
          +0.084*[#  13]+0.084*[#  21]+0.084*[#  29]+0.016*[#   3]+0.016*[#   7]
          +0.016*[#  12]+0.016*[#  16]+0.016*[#  24]+0.016*[#  32]+0.015*[#  11]
          +0.015*[#  15]+0.015*[#  23]+0.015*[#  31]+0.015*[#   4]+0.015*[#   8]
          +0.008*[#  19]+0.008*[#  20]+0.008*[#  27]+0.008*[#  28]
    |psi|^2 = 0.971
==== e(   2) =   -13.61621 eV ==== 
     psi = 0.070*[#  17]+0.070*[#  25]+0.061*[#   4]+0.061*[#   8]+0.051*[#  11]
          +0.051*[#  15]+0.051*[#  23]+0.051*[#  31]+0.037*[#  19]+0.037*[#  20]
          +0.037*[#  27]+0.037*[#  28]+0.032*[#  12]+0.032*[#  16]+0.032*[#  24]
          +0.032*[#  32]+0.031*[#   1]+0.031*[#   5]+0.031*[#   9]+0.031*[#  13]
          +0.031*[#  21]+0.031*[#  29]+0.022*[#   3]+0.022*[#   7]
    |psi|^2 = 0.972
==== e(   3) =   -12.23663 eV ==== 
     psi = 0.102*[#  19]+0.102*[#  20]+0.102*[#  27]+0.102*[#  28]+0.043*[#   1]
          +0.043*[#   5]+0.043*[#   9]+0.043*[#  13]+0.043*[#  21]+0.043*[#  29]
          +0.032*[#   3]+0.032*[#   7]+0.029*[#  12]+0.029*[#  16]+0.029*[#  24]
          +0.029*[#  32]+0.023*[#  11]+0.023*[#  15]+0.023*[#  23]+0.023*[#  31]
          +0.021*[#   4]+0.021*[#   8]
    |psi|^2 = 0.980
==== e(   4) =   -10.86310 eV ==== 
     psi = 0.069*[#   4]+0.069*[#   8]+0.059*[#  19]+0.059*[#  20]+0.059*[#  27]
          +0.059*[#  28]+0.056*[#  11]+0.056*[#  15]+0.056*[#  23]+0.056*[#  31]
          +0.038*[#  17]+0.038*[#  25]+0.030*[#  12]+0.030*[#  16]+0.030*[#  24]
          +0.030*[#  32]+0.026*[#   1]+0.026*[#   5]+0.026*[#   9]+0.026*[#  13]
[...]
          +0.160*[#  30]+0.012*[#  18]+0.012*[#  26]
    |psi|^2 = 0.985
==== e(  13) =     1.35112 eV ==== 
     psi = 0.140*[#  18]+0.140*[#  26]+0.116*[#   2]+0.116*[#   6]+0.116*[#  10]
          +0.116*[#  14]+0.116*[#  22]+0.116*[#  30]
    |psi|^2 = 0.975
==== e(  14) =     2.81750 eV ==== 
     psi = 0.126*[#  17]+0.126*[#  25]+0.081*[#   1]+0.081*[#   5]+0.081*[#   9]
          +0.081*[#  13]+0.081*[#  21]+0.081*[#  29]+0.023*[#   4]+0.023*[#   8]
          +0.019*[#  11]+0.019*[#  15]+0.019*[#  23]+0.019*[#  31]+0.016*[#  19]
          +0.016*[#  20]+0.016*[#  27]+0.016*[#  28]+0.009*[#  12]+0.009*[#  16]
          +0.009*[#  24]+0.009*[#  32]+0.005*[#   3]+0.005*[#   7]
    |psi|^2 = 0.969
==== e(  15) =     3.13017 eV ==== 
     psi = 0.148*[#  17]+0.148*[#  25]+0.093*[#   1]+0.093*[#   5]+0.093*[#   9]
          +0.093*[#  13]+0.093*[#  21]+0.093*[#  29]+0.010*[#   4]+0.010*[#   8]
          +0.009*[#  11]+0.009*[#  15]+0.009*[#  23]+0.009*[#  31]+0.008*[#  12]
          +0.008*[#  16]+0.008*[#  24]+0.008*[#  32]+0.008*[#   3]+0.008*[#   7]
          +0.004*[#  19]+0.004*[#  20]+0.004*[#  27]+0.004*[#  28]
    |psi|^2 = 0.972
==== e(  16) =     3.25260 eV ==== 
     psi = 0.158*[#  18]+0.158*[#  26]+0.107*[#   2]+0.107*[#   6]+0.107*[#  10]
          +0.107*[#  14]+0.107*[#  22]+0.107*[#  30]
    |psi|^2 = 0.961

 k =   0.2777777778  0.4811252243  0.0000000000
==== e(   1) =   -15.26490 eV ==== 
     psi = 0.101*[#  17]+0.101*[#  25]+0.057*[#   1]+0.057*[#   5]+0.057*[#   9]
          +0.057*[#  13]+0.057*[#  21]+0.057*[#  29]+0.037*[#   4]+0.037*[#   8]
          +0.033*[#  11]+0.033*[#  15]+0.033*[#  23]+0.033*[#  31]+0.026*[#  12]
          +0.026*[#  16]+0.026*[#  24]+0.026*[#  32]+0.022*[#   3]+0.022*[#   7]
          +0.017*[#  19]+0.017*[#  20]+0.017*[#  27]+0.017*[#  28]
    |psi|^2 = 0.966
==== e(   2) =   -14.65527 eV ==== 
     psi = 0.087*[#  17]+0.087*[#  25]+0.049*[#   4]+0.049*[#   8]+0.044*[#   1]
          +0.044*[#   5]+0.044*[#   9]+0.044*[#  13]+0.044*[#  21]+0.044*[#  29]
          +0.042*[#  11]+0.042*[#  15]+0.042*[#  23]+0.042*[#  31]+0.029*[#  12]
          +0.029*[#  16]+0.029*[#  24]+0.029*[#  32]+0.026*[#  19]+0.026*[#  20]
          +0.026*[#  27]+0.026*[#  28]+0.023*[#   3]+0.023*[#   7]
    |psi|^2 = 0.966
==== e(   3) =   -12.84853 eV ==== 
     psi = 0.100*[#  19]+0.100*[#  20]+0.100*[#  27]+0.100*[#  28]+0.061*[#   1]
          +0.061*[#   5]+0.061*[#   9]+0.061*[#  13]+0.061*[#  21]+0.061*[#  29]
          +0.032*[#   3]+0.032*[#   7]+0.025*[#  12]+0.025*[#  16]+0.025*[#  24]
          +0.025*[#  32]+0.010*[#  11]+0.010*[#  15]+0.010*[#  23]+0.010*[#  31]
          +0.003*[#   4]+0.003*[#   8]
    |psi|^2 = 0.973
==== e(   4) =    -9.80343 eV ==== 
     psi = 0.080*[#   4]+0.080*[#   8]+0.076*[#  19]+0.076*[#  20]+0.076*[#  27]
          +0.076*[#  28]+0.061*[#  11]+0.061*[#  15]+0.061*[#  23]+0.061*[#  31]
          +0.025*[#  17]+0.025*[#  25]+0.024*[#  12]+0.024*[#  16]+0.024*[#  24]
          +0.024*[#  32]+0.021*[#   1]+0.021*[#   5]+0.021*[#   9]+0.021*[#  13]
          +0.021*[#  21]+0.021*[#  29]+0.005*[#   3]+0.005*[#   7]
    |psi|^2 = 0.989
==== e(   5) =    -9.39519 eV ==== 
     psi = 0.068*[#  19]+0.068*[#  20]+0.068*[#  27]+0.068*[#  28]+0.068*[#   4]
          +0.068*[#   8]+0.058*[#  11]+0.058*[#  15]+0.058*[#  23]+0.058*[#  31]
          +0.036*[#  12]+0.036*[#  16]+0.036*[#  24]+0.036*[#  32]+0.025*[#   3]
          +0.025*[#   7]+0.021*[#   1]+0.021*[#   5]+0.021*[#   9]+0.021*[#  13]
          +0.021*[#  21]+0.021*[#  29]+0.013*[#  17]+0.013*[#  25]
    |psi|^2 = 0.988
==== e(   6) =    -7.99723 eV ==== 
     psi = 0.102*[#   4]+0.102*[#   8]+0.087*[#  19]+0.087*[#  20]+0.087*[#  27]
          +0.087*[#  28]+0.077*[#  11]+0.077*[#  15]+0.077*[#  23]+0.077*[#  31]
          +0.027*[#  12]+0.027*[#  16]+0.027*[#  24]+0.027*[#  32]+0.002*[#   1]
          +0.002*[#   5]+0.002*[#   9]+0.002*[#  13]+0.002*[#  21]+0.002*[#  29]
          +0.002*[#   3]+0.002*[#   7]
    |psi|^2 = 0.990
==== e(   7) =    -7.64735 eV ==== 
     psi = 0.106*[#   3]+0.106*[#   7]+0.084*[#  12]+0.084*[#  16]+0.084*[#  24]
          +0.084*[#  32]+0.041*[#  11]+0.041*[#  15]+0.041*[#  23]+0.041*[#  31]
          +0.026*[#  19]+0.026*[#  20]+0.026*[#  27]+0.026*[#  28]+0.021*[#   1]
          +0.021*[#   5]+0.021*[#   9]+0.021*[#  13]+0.021*[#  21]+0.021*[#  29]
          +0.019*[#   4]+0.019*[#   8]+0.002*[#  17]+0.002*[#  25]
    |psi|^2 = 0.986
==== e(   8) =    -5.59045 eV ==== 
     psi = 0.175*[#  18]+0.175*[#  26]+0.100*[#   2]+0.100*[#   6]+0.100*[#  10]
          +0.100*[#  14]+0.100*[#  22]+0.100*[#  30]
    |psi|^2 = 0.950
==== e(   9) =    -4.63774 eV ==== 
     psi = 0.189*[#  18]+0.189*[#  26]+0.099*[#   2]+0.099*[#   6]+0.099*[#  10]
          +0.099*[#  14]+0.099*[#  22]+0.099*[#  30]
    |psi|^2 = 0.970
==== e(  10) =    -4.52796 eV ==== 
     psi = 0.108*[#   3]+0.108*[#   7]+0.089*[#  12]+0.089*[#  16]+0.089*[#  24]
          +0.089*[#  32]+0.050*[#  11]+0.050*[#  15]+0.050*[#  23]+0.050*[#  31]
          +0.031*[#   4]+0.031*[#   8]+0.021*[#   1]+0.021*[#   5]+0.021*[#   9]
          +0.021*[#  13]+0.021*[#  21]+0.021*[#  29]+0.007*[#  19]+0.007*[#  20]
          +0.007*[#  27]+0.007*[#  28]
    |psi|^2 = 0.992
==== e(  11) =    -4.44072 eV ==== 
     psi = 0.116*[#   3]+0.116*[#   7]+0.094*[#  12]+0.094*[#  16]+0.094*[#  24]
          +0.094*[#  32]+0.049*[#  11]+0.049*[#  15]+0.049*[#  23]+0.049*[#  31]
          +0.027*[#   4]+0.027*[#   8]+0.021*[#   1]+0.021*[#   5]+0.021*[#   9]
          +0.021*[#  13]+0.021*[#  21]+0.021*[#  29]+0.002*[#  19]+0.002*[#  20]
          +0.002*[#  27]+0.002*[#  28]
    |psi|^2 = 0.991
==== e(  12) =    -2.91969 eV ==== 
     psi = 0.162*[#   2]+0.162*[#   6]+0.162*[#  10]+0.162*[#  14]+0.162*[#  22]
          +0.162*[#  30]+0.006*[#  18]+0.006*[#  26]
    |psi|^2 = 0.984
==== e(  13) =     1.73919 eV ==== 
     psi = 0.161*[#  18]+0.161*[#  26]+0.109*[#   2]+0.109*[#   6]+0.109*[#  10]
          +0.109*[#  14]+0.109*[#  22]+0.109*[#  30]
    |psi|^2 = 0.976
==== e(  14) =     2.53320 eV ==== 
     psi = 0.126*[#   2]+0.126*[#   6]+0.126*[#  10]+0.126*[#  14]+0.126*[#  22]
          +0.126*[#  30]+0.099*[#  18]+0.099*[#  26]
    |psi|^2 = 0.953
==== e(  15) =     2.64585 eV ==== 
     psi = 0.122*[#  17]+0.122*[#  25]+0.080*[#   1]+0.080*[#   5]+0.080*[#   9]
          +0.080*[#  13]+0.080*[#  21]+0.080*[#  29]+0.022*[#   4]+0.022*[#   8]
          +0.018*[#  11]+0.018*[#  15]+0.018*[#  23]+0.018*[#  31]+0.017*[#  19]
          +0.017*[#  20]+0.017*[#  27]+0.017*[#  28]+0.011*[#  12]+0.011*[#  16]
          +0.011*[#  24]+0.011*[#  32]+0.007*[#   3]+0.007*[#   7]
    |psi|^2 = 0.971
==== e(  16) =     3.31458 eV ==== 
     psi = 0.152*[#  17]+0.152*[#  25]+0.088*[#   1]+0.088*[#   5]+0.088*[#   9]
          +0.088*[#  13]+0.088*[#  21]+0.088*[#  29]+0.012*[#   4]+0.012*[#   8]
          +0.011*[#  11]+0.011*[#  15]+0.011*[#  23]+0.011*[#  31]+0.009*[#  12]
          +0.009*[#  16]+0.009*[#  24]+0.009*[#  32]+0.008*[#   3]+0.008*[#   7]
          +0.005*[#  19]+0.005*[#  20]+0.005*[#  27]+0.005*[#  28]
    |psi|^2 = 0.973

 k =   0.2777777778  0.5452752542  0.0000000000
==== e(   1) =   -15.12348 eV ==== 
     psi = 0.098*[#  17]+0.098*[#  25]+0.053*[#   1]+0.053*[#   5]+0.053*[#   9]
          +0.053*[#  13]+0.053*[#  21]+0.053*[#  29]+0.041*[#   4]+0.041*[#   8]
          +0.036*[#  11]+0.036*[#  15]+0.036*[#  23]+0.036*[#  31]+0.027*[#  12]
          +0.027*[#  16]+0.027*[#  24]+0.027*[#  32]+0.022*[#   3]+0.022*[#   7]
          +0.019*[#  19]+0.019*[#  20]+0.019*[#  27]+0.019*[#  28]
    |psi|^2 = 0.966
==== e(   2) =   -14.81224 eV ==== 
     psi = 0.090*[#  17]+0.090*[#  25]+0.047*[#   1]+0.047*[#   5]+0.047*[#   9]
          +0.047*[#  13]+0.047*[#  21]+0.047*[#  29]+0.046*[#   4]+0.046*[#   8]
          +0.040*[#  11]+0.040*[#  15]+0.040*[#  23]+0.040*[#  31]+0.028*[#  12]
          +0.028*[#  16]+0.028*[#  24]+0.028*[#  32]+0.024*[#  19]+0.024*[#  20]
          +0.024*[#  27]+0.024*[#  28]+0.023*[#   3]+0.023*[#   7]
    |psi|^2 = 0.966
==== e(   3) =   -12.90152 eV ==== 
     psi = 0.100*[#  19]+0.100*[#  20]+0.100*[#  27]+0.100*[#  28]+0.062*[#   1]
          +0.062*[#   5]+0.062*[#   9]+0.062*[#  13]+0.062*[#  21]+0.062*[#  29]
          +0.032*[#   3]+0.032*[#   7]+0.024*[#  12]+0.024*[#  16]+0.024*[#  24]
          +0.024*[#  32]+0.009*[#  11]+0.009*[#  15]+0.009*[#  23]+0.009*[#  31]
          +0.001*[#   4]+0.001*[#   8]
    |psi|^2 = 0.973
==== e(   4) =    -9.69858 eV ==== 
     psi = 0.078*[#   4]+0.078*[#   8]+0.075*[#  19]+0.075*[#  20]+0.075*[#  27]
          +0.075*[#  28]+0.060*[#  11]+0.060*[#  15]+0.060*[#  23]+0.060*[#  31]
          +0.026*[#  12]+0.026*[#  16]+0.026*[#  24]+0.026*[#  32]+0.022*[#  17]
          +0.022*[#  25]+0.021*[#   1]+0.021*[#   5]+0.021*[#   9]+0.021*[#  13]
          +0.021*[#  21]+0.021*[#  29]+0.008*[#   3]+0.008*[#   7]
    |psi|^2 = 0.989
==== e(   5) =    -9.27960 eV ==== 
     psi = 0.083*[#   4]+0.083*[#   8]+0.079*[#  19]+0.079*[#  20]+0.079*[#  27]
          +0.079*[#  28]+0.064*[#  11]+0.064*[#  15]+0.064*[#  23]+0.064*[#  31]
          +0.026*[#  12]+0.026*[#  16]+0.026*[#  24]+0.026*[#  32]+0.017*[#   1]
          +0.017*[#   5]+0.017*[#   9]+0.017*[#  13]+0.017*[#  21]+0.017*[#  29]
          +0.017*[#  17]+0.017*[#  25]+0.007*[#   3]+0.007*[#   7]
    |psi|^2 = 0.989
==== e(   6) =    -7.91780 eV ==== 
     psi = 0.105*[#   4]+0.105*[#   8]+0.088*[#  19]+0.088*[#  20]+0.088*[#  27]
          +0.088*[#  28]+0.079*[#  11]+0.079*[#  15]+0.079*[#  23]+0.079*[#  31]
          +0.027*[#  12]+0.027*[#  16]+0.027*[#  24]+0.027*[#  32]
    |psi|^2 = 0.990
==== e(   7) =    -7.89487 eV ==== 
     psi = 0.120*[#   3]+0.120*[#   7]+0.092*[#  12]+0.092*[#  16]+0.092*[#  24]
          +0.092*[#  32]+0.035*[#  11]+0.035*[#  15]+0.035*[#  23]+0.035*[#  31]
          +0.026*[#   1]+0.026*[#   5]+0.026*[#   9]+0.026*[#  13]+0.026*[#  21]
          +0.026*[#  29]+0.017*[#  19]+0.017*[#  20]+0.017*[#  27]+0.017*[#  28]
          +0.007*[#   4]+0.007*[#   8]+0.001*[#  17]+0.001*[#  25]
    |psi|^2 = 0.985
==== e(   8) =    -5.35676 eV ==== 
     psi = 0.181*[#  18]+0.181*[#  26]+0.099*[#   2]+0.099*[#   6]+0.099*[#  10]
          +0.099*[#  14]+0.099*[#  22]+0.099*[#  30]
    |psi|^2 = 0.957
==== e(   9) =    -4.88545 eV ==== 
     psi = 0.184*[#  18]+0.184*[#  26]+0.100*[#   2]+0.100*[#   6]+0.100*[#  10]
          +0.100*[#  14]+0.100*[#  22]+0.100*[#  30]
    |psi|^2 = 0.966
==== e(  10) =    -4.56670 eV ==== 
     psi = 0.111*[#   3]+0.111*[#   7]+0.091*[#  12]+0.091*[#  16]+0.091*[#  24]
          +0.091*[#  32]+0.049*[#  11]+0.049*[#  15]+0.049*[#  23]+0.049*[#  31]
          +0.029*[#   4]+0.029*[#   8]+0.022*[#   1]+0.022*[#   5]+0.022*[#   9]
          +0.022*[#  13]+0.022*[#  21]+0.022*[#  29]+0.005*[#  19]+0.005*[#  20]
          +0.005*[#  27]+0.005*[#  28]
    |psi|^2 = 0.992
==== e(  11) =    -4.37860 eV ==== 
     psi = 0.116*[#   3]+0.116*[#   7]+0.094*[#  12]+0.094*[#  16]+0.094*[#  24]
          +0.094*[#  32]+0.050*[#  11]+0.050*[#  15]+0.050*[#  23]+0.050*[#  31]
          +0.028*[#   4]+0.028*[#   8]+0.019*[#   1]+0.019*[#   5]+0.019*[#   9]
          +0.019*[#  13]+0.019*[#  21]+0.019*[#  29]+0.003*[#  19]+0.003*[#  20]
          +0.003*[#  27]+0.003*[#  28]
    |psi|^2 = 0.991
==== e(  12) =    -3.02835 eV ==== 
     psi = 0.163*[#   2]+0.163*[#   6]+0.163*[#  10]+0.163*[#  14]+0.163*[#  22]
          +0.163*[#  30]+0.003*[#  18]+0.003*[#  26]
    |psi|^2 = 0.983
==== e(  13) =     1.92968 eV ==== 
     psi = 0.152*[#  18]+0.152*[#  26]+0.111*[#   2]+0.111*[#   6]+0.111*[#  10]
          +0.111*[#  14]+0.111*[#  22]+0.111*[#  30]
    |psi|^2 = 0.972
==== e(  14) =     2.76027 eV ==== 
     psi = 0.133*[#  17]+0.133*[#  25]+0.084*[#   1]+0.084*[#   5]+0.084*[#   9]
          +0.084*[#  13]+0.084*[#  21]+0.084*[#  29]+0.019*[#   4]+0.019*[#   8]
          +0.016*[#  11]+0.016*[#  15]+0.016*[#  23]+0.016*[#  31]+0.013*[#  19]
          +0.013*[#  20]+0.013*[#  27]+0.013*[#  28]+0.009*[#  12]+0.009*[#  16]
          +0.009*[#  24]+0.009*[#  32]+0.005*[#   3]+0.005*[#   7]
    |psi|^2 = 0.972
==== e(  15) =     2.77398 eV ==== 
     psi = 0.144*[#  18]+0.144*[#  26]+0.112*[#   2]+0.112*[#   6]+0.112*[#  10]
          +0.112*[#  14]+0.112*[#  22]+0.112*[#  30]
    |psi|^2 = 0.962
==== e(  16) =     3.06025 eV ==== 
     psi = 0.147*[#  17]+0.147*[#  25]+0.088*[#   1]+0.088*[#   5]+0.088*[#   9]
          +0.088*[#  13]+0.088*[#  21]+0.088*[#  29]+0.013*[#   4]+0.013*[#   8]
          +0.012*[#  11]+0.012*[#  15]+0.012*[#  23]+0.012*[#  31]+0.009*[#  12]
          +0.009*[#  16]+0.009*[#  24]+0.009*[#  32]+0.007*[#   3]+0.007*[#   7]
          +0.006*[#  19]+0.006*[#  20]+0.006*[#  27]+0.006*[#  28]
    |psi|^2 = 0.973

 k =   0.3333333333  0.5773502692  0.0000000000
==== e(   1) =   -14.96893 eV ==== 
     psi = 0.094*[#  17]+0.094*[#  25]+0.049*[#   1]+0.049*[#   5]+0.049*[#   9]
          +0.049*[#  13]+0.049*[#  21]+0.049*[#  29]+0.044*[#   4]+0.044*[#   8]
          +0.038*[#  11]+0.038*[#  15]+0.038*[#  23]+0.038*[#  31]+0.028*[#  12]
          +0.028*[#  16]+0.028*[#  24]+0.028*[#  32]+0.023*[#   3]+0.023*[#   7]
          +0.021*[#  19]+0.021*[#  20]+0.021*[#  27]+0.021*[#  28]
    |psi|^2 = 0.966
==== e(   2) =   -14.96887 eV ==== 
     psi = 0.094*[#  17]+0.094*[#  25]+0.049*[#   1]+0.049*[#   5]+0.049*[#   9]
          +0.049*[#  13]+0.049*[#  21]+0.049*[#  29]+0.044*[#   4]+0.044*[#   8]
          +0.038*[#  11]+0.038*[#  15]+0.038*[#  23]+0.038*[#  31]+0.028*[#  12]
          +0.028*[#  16]+0.028*[#  24]+0.028*[#  32]+0.023*[#   3]+0.023*[#   7]
          +0.021*[#  19]+0.021*[#  20]+0.021*[#  27]+0.021*[#  28]
    |psi|^2 = 0.966
==== e(   3) =   -12.93342 eV ==== 
     psi = 0.100*[#  19]+0.100*[#  20]+0.100*[#  27]+0.100*[#  28]+0.063*[#   1]
          +0.063*[#   5]+0.063*[#   9]+0.063*[#  13]+0.063*[#  21]+0.063*[#  29]
          +0.032*[#   3]+0.032*[#   7]+0.024*[#  12]+0.024*[#  16]+0.024*[#  24]
          +0.024*[#  32]+0.008*[#  11]+0.008*[#  15]+0.008*[#  23]+0.008*[#  31]
          
    |psi|^2 = 0.973
==== e(   4) =    -9.43679 eV ==== 
     psi = 0.083*[#   4]+0.083*[#   8]+0.080*[#  19]+0.080*[#  20]+0.080*[#  27]
          +0.080*[#  28]+0.063*[#  11]+0.063*[#  15]+0.063*[#  23]+0.063*[#  31]
          +0.024*[#  12]+0.024*[#  16]+0.024*[#  24]+0.024*[#  32]+0.020*[#  17]
          +0.020*[#  25]+0.018*[#   1]+0.018*[#   5]+0.018*[#   9]+0.018*[#  13]
          +0.018*[#  21]+0.018*[#  29]+0.004*[#   3]+0.004*[#   7]
    |psi|^2 = 0.990
==== e(   5) =    -9.43675 eV ==== 
     psi = 0.083*[#   4]+0.083*[#   8]+0.080*[#  19]+0.080*[#  20]+0.080*[#  27]
          +0.080*[#  28]+0.063*[#  11]+0.063*[#  15]+0.063*[#  23]+0.063*[#  31]
          +0.024*[#  12]+0.024*[#  16]+0.024*[#  24]+0.024*[#  32]+0.020*[#  17]
          +0.020*[#  25]+0.018*[#   1]+0.018*[#   5]+0.018*[#   9]+0.018*[#  13]
          +0.018*[#  21]+0.018*[#  29]+0.004*[#   3]+0.004*[#   7]
    |psi|^2 = 0.990
==== e(   6) =    -8.01723 eV ==== 
     psi = 0.128*[#   3]+0.128*[#   7]+0.096*[#  12]+0.096*[#  16]+0.096*[#  24]
          +0.096*[#  32]+0.032*[#  11]+0.032*[#  15]+0.032*[#  23]+0.032*[#  31]
          +0.028*[#   1]+0.028*[#   5]+0.028*[#   9]+0.028*[#  13]+0.028*[#  21]
          +0.028*[#  29]+0.012*[#  19]+0.012*[#  20]+0.012*[#  27]+0.012*[#  28]
          
    |psi|^2 = 0.985
==== e(   7) =    -7.88546 eV ==== 
     psi = 0.106*[#   4]+0.106*[#   8]+0.089*[#  19]+0.089*[#  20]+0.089*[#  27]
          +0.089*[#  28]+0.079*[#  11]+0.079*[#  15]+0.079*[#  23]+0.079*[#  31]
          +0.026*[#  12]+0.026*[#  16]+0.026*[#  24]+0.026*[#  32]
    |psi|^2 = 0.990
==== e(   8) =    -5.11640 eV ==== 
     psi = 0.184*[#  18]+0.184*[#  26]+0.099*[#   2]+0.099*[#   6]+0.099*[#  10]
          +0.099*[#  14]+0.099*[#  22]+0.099*[#  30]
    |psi|^2 = 0.962
==== e(   9) =    -5.11636 eV ==== 
     psi = 0.184*[#  18]+0.184*[#  26]+0.099*[#   2]+0.099*[#   6]+0.099*[#  10]
          +0.099*[#  14]+0.099*[#  22]+0.099*[#  30]
    |psi|^2 = 0.962
==== e(  10) =    -4.45751 eV ==== 
     psi = 0.114*[#   3]+0.114*[#   7]+0.093*[#  12]+0.093*[#  16]+0.093*[#  24]
          +0.093*[#  32]+0.050*[#  11]+0.050*[#  15]+0.050*[#  23]+0.050*[#  31]
          +0.029*[#   4]+0.029*[#   8]+0.020*[#   1]+0.020*[#   5]+0.020*[#   9]
          +0.020*[#  13]+0.020*[#  21]+0.020*[#  29]+0.004*[#  19]+0.004*[#  20]
          +0.004*[#  27]+0.004*[#  28]
    |psi|^2 = 0.992
==== e(  11) =    -4.45747 eV ==== 
     psi = 0.114*[#   3]+0.114*[#   7]+0.093*[#  12]+0.093*[#  16]+0.093*[#  24]
          +0.093*[#  32]+0.050*[#  11]+0.050*[#  15]+0.050*[#  23]+0.050*[#  31]
          +0.029*[#   4]+0.029*[#   8]+0.020*[#   1]+0.020*[#   5]+0.020*[#   9]
          +0.020*[#  13]+0.020*[#  21]+0.020*[#  29]+0.004*[#  19]+0.004*[#  20]
          +0.004*[#  27]+0.004*[#  28]
    |psi|^2 = 0.992
==== e(  12) =    -3.09862 eV ==== 
     psi = 0.164*[#   2]+0.164*[#   6]+0.164*[#  10]+0.164*[#  14]+0.164*[#  22]
          +0.164*[#  30]
    |psi|^2 = 0.981
==== e(  13) =     2.44251 eV ==== 
     psi = 0.159*[#  18]+0.159*[#  26]+0.108*[#   2]+0.108*[#   6]+0.108*[#  10]
          +0.108*[#  14]+0.108*[#  22]+0.108*[#  30]
    |psi|^2 = 0.969
==== e(  14) =     2.44252 eV ==== 
     psi = 0.159*[#  18]+0.159*[#  26]+0.108*[#   2]+0.108*[#   6]+0.108*[#  10]
          +0.108*[#  14]+0.108*[#  22]+0.108*[#  30]
    |psi|^2 = 0.969
==== e(  15) =     2.87310 eV ==== 
     psi = 0.141*[#  17]+0.141*[#  25]+0.087*[#   1]+0.087*[#   5]+0.087*[#   9]
          +0.087*[#  13]+0.087*[#  21]+0.087*[#  29]+0.016*[#   4]+0.016*[#   8]
          +0.014*[#  11]+0.014*[#  15]+0.014*[#  23]+0.014*[#  31]+0.009*[#  19]
          +0.009*[#  20]+0.009*[#  27]+0.009*[#  28]+0.009*[#  12]+0.009*[#  16]
          +0.009*[#  24]+0.009*[#  32]+0.006*[#   3]+0.006*[#   7]
    |psi|^2 = 0.973
==== e(  16) =     2.87311 eV ==== 
     psi = 0.141*[#  17]+0.141*[#  25]+0.087*[#   1]+0.087*[#   5]+0.087*[#   9]
          +0.087*[#  13]+0.087*[#  21]+0.087*[#  29]+0.016*[#   4]+0.016*[#   8]
          +0.014*[#  11]+0.014*[#  15]+0.014*[#  23]+0.014*[#  31]+0.009*[#  19]
          +0.009*[#  20]+0.009*[#  27]+0.009*[#  28]+0.009*[#  12]+0.009*[#  16]
          +0.009*[#  24]+0.009*[#  32]+0.006*[#   3]+0.006*[#   7]
    |psi|^2 = 0.973

Lowdin Charges: 

     Atom #   1: total charge =   2.9768, s =  0.5646, 
     Atom #   1: total charge =   2.9768, p =  2.4121, pz=  0.7183, px=  0.8601, py=  0.8337, 
     Atom #   2: total charge =   2.9768, s =  0.5646, 
     Atom #   2: total charge =   2.9768, p =  2.4121, pz=  0.7183, px=  0.8601, py=  0.8337, 
     Atom #   3: total charge =   2.9768, s =  0.5646, 
     Atom #   3: total charge =   2.9768, p =  2.4121, pz=  0.7183, px=  0.8403, py=  0.8535, 
     Atom #   4: total charge =   2.9768, s =  0.5646, 
     Atom #   4: total charge =   2.9768, p =  2.4121, pz=  0.7183, px=  0.8403, py=  0.8535, 
     Atom #   5: total charge =   2.8173, s =  0.4828, 
     Atom #   5: total charge =   2.8173, p =  2.3345, pz=  0.7431, px=  0.7957, py=  0.7957, 
     Atom #   6: total charge =   2.9768, s =  0.5646, 
     Atom #   6: total charge =   2.9768, p =  2.4121, pz=  0.7183, px=  0.8403, py=  0.8535, 
     Atom #   7: total charge =   2.8173, s =  0.4828, 
     Atom #   7: total charge =   2.8173, p =  2.3345, pz=  0.7431, px=  0.7957, py=  0.7957, 
     Atom #   8: total charge =   2.9768, s =  0.5646, 
     Atom #   8: total charge =   2.9768, p =  2.4121, pz=  0.7183, px=  0.8403, py=  0.8535, 
     Spilling Parameter:   0.0210

     PROJWFC      :      4.06s CPU      3.74s WALL


   This run was terminated on:  11:40:40   8Jul2025            

=------------------------------------------------------------------------------=
   JOB DONE.
=------------------------------------------------------------------------------=
