
     Program PWSCF v.7.2 starts on  8Jul2025 at 11:25:23 

     This program is part of the open-source Quantum ESPRESSO suite
     for quantum simulation of materials; please cite
         "P. Giannozzi et al., J. Phys.:Condens. Matter 21 395502 (2009);
         "P. Giannozzi et al., J. Phys.:Condens. Matter 29 465901 (2017);
         "P. Giannozzi et al., J. Chem. Phys. 152 154105 (2020);
          URL http://www.quantum-espresso.org", 
     in publications or presentations arising from this work. More details at
     http://www.quantum-espresso.org/quote

     Parallel version (MPI & OpenMP), running on       2 processor cores
     Number of MPI processes:                 1
     Threads/MPI process:                     2

     MPI processes distributed on     1 nodes
     299 MiB available memory on the printing compute node when the environment starts

     Reading input from alpha.scf.in

     Current dimensions of program PWSCF are:
     Max number of different atomic species (ntypx) = 10
     Max number of k-points (npk) =  40000
     Max angular momentum in pseudopotentials (lmaxx) =  4
     file B.pbesol-n-rrkjus_psl.1.0.0.UPF: wavefunction(s)  2S renormalized

     IMPORTANT: XC functional enforced from input :
     Exchange-correlation= PBESOL
                           (   1   4  10   8   0   0   0)
     Any further DFT definition will be discarded
     Please, verify this is what you really want


     Subspace diagonalization in iterative solution of the eigenvalue problem:
     a serial algorithm will be used


     G-vector sticks info
     --------------------
     sticks:   dense  smooth     PW     G-vecs:    dense   smooth      PW
     Sum        1777    1777    499               120595   120595   17639

     Using Slab Decomposition



     bravais-lattice index     =            4
     lattice parameter (alat)  =       9.5830  a.u.
     unit-cell volume          =    1524.2812 (a.u.)^3
     number of atoms/cell      =            8
     number of atomic types    =            1
     number of electrons       =        24.00
     number of Kohn-Sham states=           16
     kinetic-energy cutoff     =      70.0000  Ry
     charge density cutoff     =     280.0000  Ry
     scf convergence threshold =      1.0E-06
     mixing beta               =       0.7000
     number of iterations used =            8  plain     mixing
     Exchange-correlation= PBESOL
                           (   1   4  10   8   0   0   0)

     celldm(1)=   9.583000  celldm(2)=   0.000000  celldm(3)=   2.000000
     celldm(4)=   0.000000  celldm(5)=   0.000000  celldm(6)=   0.000000

     crystal axes: (cart. coord. in units of alat)
               a(1) = (   1.000000   0.000000   0.000000 )  
               a(2) = (  -0.500000   0.866025   0.000000 )  
               a(3) = (   0.000000   0.000000   2.000000 )  

     reciprocal axes: (cart. coord. in units 2 pi/alat)
               b(1) = (  1.000000  0.577350 -0.000000 )  
               b(2) = (  0.000000  1.154701  0.000000 )  
               b(3) = (  0.000000 -0.000000  0.500000 )  


     PseudoPot. # 1 for B  read from file:
     ../../pseudo/B.pbesol-n-rrkjus_psl.1.0.0.UPF
     MD5 check sum: a3839a09b1a4e02f2a06a66adc9253fc
     Pseudo is Ultrasoft + core correction, Zval =  3.0
     Generated using &quot;atomic&quot; code by A. Dal Corso  v.6.3MaX
     Using radial grid of 1059 points,  4 beta functions with: 
                l(1) =   0
                l(2) =   0
                l(3) =   1
                l(4) =   1
     Q(r) pseudized with 0 coefficients 


     atomic species   valence    mass     pseudopotential
        B              3.00    10.81100     B ( 1.00)

     24 Sym. Ops., with inversion, found



   Cartesian axes

     site n.     atom                  positions (alat units)
         1           B   tau(   1) = (   0.3333330   0.0000000   0.0000000  )
         2           B   tau(   2) = (   0.6666670   0.0000000   0.0000000  )
         3           B   tau(   3) = (  -0.1666665   0.2886748   0.0000000  )
         4           B   tau(   4) = (   0.1666665   0.2886748   0.0000000  )
         5           B   tau(   5) = (   0.5000005   0.2886748   0.0000000  )
         6           B   tau(   6) = (  -0.3333335   0.5773506   0.0000000  )
         7           B   tau(   7) = (  -0.0000005   0.5773506   0.0000000  )
         8           B   tau(   8) = (   0.3333335   0.5773506   0.0000000  )

     number of k points=    12  Marzari-Vanderbilt smearing, width (Ry)=  0.0350
                       cart. coord. in units 2pi/alat
        k(    1) = (   0.0000000   0.0000000   0.0000000), wk =   0.0246914
        k(    2) = (   0.0000000   0.1283001   0.0000000), wk =   0.1481481
        k(    3) = (   0.0000000   0.2566001   0.0000000), wk =   0.1481481
        k(    4) = (   0.0000000   0.3849002   0.0000000), wk =   0.1481481
        k(    5) = (   0.0000000   0.5132002   0.0000000), wk =   0.1481481
        k(    6) = (   0.1111111   0.1924501   0.0000000), wk =   0.1481481
        k(    7) = (   0.1111111   0.3207501   0.0000000), wk =   0.2962963
        k(    8) = (   0.1111111   0.4490502   0.0000000), wk =   0.2962963
        k(    9) = (   0.1111111   0.5773503   0.0000000), wk =   0.1481481
        k(   10) = (   0.2222222   0.3849002   0.0000000), wk =   0.1481481
        k(   11) = (   0.2222222   0.5132002   0.0000000), wk =   0.2962963
        k(   12) = (   0.3333333   0.5773503   0.0000000), wk =   0.0493827

     Dense  grid:   120595 G-vectors     FFT dimensions: (  54,  54, 108)

     Estimated max dynamical RAM per process >     228.57 MB

     Initial potential from superposition of free atoms

     starting charge      23.9977, renormalised to      24.0000

     negative rho (up, down):  4.520E-05 0.000E+00
     Starting wfcs are   32 randomized atomic wfcs

     total cpu time spent up to now is        7.5 secs

     per-process dynamical memory:   132.4 Mb

     Self-consistent Calculation

     iteration #  1     ecut=    70.00 Ry     beta= 0.70
     Davidson diagonalization with overlap
     ethr =  1.00E-02,  avg # of iterations =  2.0

     negative rho (up, down):  3.631E-04 0.000E+00

     total cpu time spent up to now is       68.8 secs

     total energy              =     -49.87066343 Ry
     estimated scf accuracy    <       0.68658438 Ry

     iteration #  2     ecut=    70.00 Ry     beta= 0.70
     Davidson diagonalization with overlap
     ethr =  2.86E-03,  avg # of iterations =  2.0

     negative rho (up, down):  6.325E-04 0.000E+00

     total cpu time spent up to now is       81.7 secs

     total energy              =     -49.98247871 Ry
     estimated scf accuracy    <       0.01776710 Ry

     iteration #  3     ecut=    70.00 Ry     beta= 0.70
     Davidson diagonalization with overlap
     ethr =  7.40E-05,  avg # of iterations =  4.7

     negative rho (up, down):  7.275E-04 0.000E+00

     total cpu time spent up to now is       96.7 secs

     total energy              =     -49.98702405 Ry
     estimated scf accuracy    <       0.00467466 Ry

     iteration #  4     ecut=    70.00 Ry     beta= 0.70
     Davidson diagonalization with overlap
     ethr =  1.95E-05,  avg # of iterations =  3.2

     negative rho (up, down):  8.285E-04 0.000E+00

     total cpu time spent up to now is       97.9 secs

     total energy              =     -49.98804465 Ry
     estimated scf accuracy    <       0.00016529 Ry

     iteration #  5     ecut=    70.00 Ry     beta= 0.70
     Davidson diagonalization with overlap
     ethr =  6.89E-07,  avg # of iterations =  5.1

     negative rho (up, down):  8.374E-04 0.000E+00

     total cpu time spent up to now is      113.6 secs

     total energy              =     -49.98806408 Ry
     estimated scf accuracy    <       0.00001587 Ry

     iteration #  6     ecut=    70.00 Ry     beta= 0.70
     Davidson diagonalization with overlap
     ethr =  6.61E-08,  avg # of iterations =  2.5

     negative rho (up, down):  8.377E-04 0.000E+00

     total cpu time spent up to now is      115.4 secs

     End of self-consistent calculation

          k = 0.0000 0.0000 0.0000 ( 15117 PWs)   bands (ev):

   -16.1941 -12.0839 -12.0030 -12.0030  -9.7597  -9.7597  -7.6315  -7.0611
    -2.1449  -2.1449  -0.6703  -0.1580  -0.1580   0.1163   0.1163   0.4854

          k = 0.0000 0.1283 0.0000 ( 15092 PWs)   bands (ev):

   -16.1389 -12.7520 -12.0543 -11.3788  -9.8277  -9.6185  -7.3941  -6.9763
    -2.7509  -2.6598  -1.6198  -0.6022  -0.0011   0.6852   0.7726   1.0954

          k = 0.0000 0.2566 0.0000 ( 15062 PWs)   bands (ev):

   -15.9764 -13.4348 -12.1679 -10.9679  -9.7354  -9.2471  -6.9213  -6.7250
    -3.7896  -3.4998  -2.7711  -1.1028  -0.2169   1.7285   1.9526   2.0902

          k = 0.0000 0.3849 0.0000 ( 15056 PWs)   bands (ev):

   -15.7210 -14.0518 -12.2769 -10.9443  -9.2172  -8.7624  -6.6815  -6.3217
    -4.7539  -4.0315  -3.8017  -1.4487  -0.4382   2.7571   3.1293   3.2475

          k = 0.0000 0.5132 0.0000 ( 15070 PWs)   bands (ev):

   -15.4402 -14.5180 -12.3399 -11.0069  -8.6579  -8.3615  -6.8848  -5.8494
    -5.3980  -4.5937  -4.0911  -1.6234  -0.5644   3.3207   3.6777   3.8400

          k = 0.1111 0.1925 0.0000 ( 15099 PWs)   bands (ev):

   -16.0298 -13.2466 -12.1809 -10.9524  -9.8924  -9.3232  -7.0475  -6.8081
    -3.5333  -3.2490  -2.4186  -1.2573   0.3542   1.2298   1.2910   1.7676

          k = 0.1111 0.3208 0.0000 ( 15098 PWs)   bands (ev):

   -15.8188 -13.8234 -12.3662 -10.6573  -9.6973  -8.8414  -6.7422  -6.4786
    -4.3635  -3.9145  -3.3700  -1.8104   0.3569   2.0290   2.0568   3.0861

          k = 0.1111 0.4491 0.0000 ( 15081 PWs)   bands (ev):

   -15.5332 -14.3499 -12.5033 -10.6578  -9.1288  -8.3653  -6.9355  -6.0181
    -4.9531  -4.2533  -4.1689  -2.1213   0.2206   2.7640   3.1716   3.5390

          k = 0.1111 0.5774 0.0000 ( 15082 PWs)   bands (ev):

   -15.3335 -14.6329 -12.5522 -10.6824  -8.7539  -8.1442  -7.2395  -5.6665
    -5.2145  -4.7521  -4.1273  -2.2220   0.1648   3.1867   3.2497   4.1478

          k = 0.2222 0.3849 0.0000 ( 15061 PWs)   bands (ev):

   -15.5685 -14.2599 -12.6448 -10.1680  -9.6423  -8.3461  -7.0020  -6.0816
    -4.5468  -4.3404  -4.0264  -2.4920   1.1535   2.0990   2.3821   3.4507

          k = 0.2222 0.5132 0.0000 ( 15072 PWs)   bands (ev):

   -15.2730 -14.6575 -12.8092 -10.0250  -9.2009  -8.0138  -7.5984  -5.5956
    -4.7085  -4.6699  -4.3082  -2.8243   1.3470   2.7168   2.9419   3.2917

          k = 0.3333 0.5774 0.0000 ( 15075 PWs)   bands (ev):

   -14.9701 -14.9701 -12.9330  -9.4375  -9.4374  -8.0152  -7.8864  -5.1174
    -5.1173  -4.4550  -4.4549  -3.0972   2.4422   2.4423   2.8734   2.8734

     the Fermi energy is    -0.6136 ev

!    total energy              =     -49.98806847 Ry
     estimated scf accuracy    <       0.00000085 Ry
     smearing contrib. (-TS)   =       0.00021049 Ry
     internal energy E=F+TS    =     -49.98827896 Ry

     The total energy is F=E-TS. E is the sum of the following terms:
     one-electron contribution =    -179.30329780 Ry
     hartree contribution      =      94.21594688 Ry
     xc contribution           =     -23.20626396 Ry
     ewald contribution        =      58.30533592 Ry

     convergence has been achieved in   6 iterations

     Writing all to output data dir ../../outdir/borophene.save/

     init_run     :      9.36s CPU      7.43s WALL (       1 calls)
     electrons    :    103.86s CPU    107.95s WALL (       1 calls)

     Called by init_run:
     wfcinit      :      8.28s CPU      6.41s WALL (       1 calls)
     potinit      :      0.20s CPU      0.16s WALL (       1 calls)
     hinit0       :      0.73s CPU      0.69s WALL (       1 calls)

     Called by electrons:
     c_bands      :     83.98s CPU     33.69s WALL (       6 calls)
     sum_band     :     18.36s CPU     72.71s WALL (       6 calls)
     v_of_rho     :      1.08s CPU      0.89s WALL (       7 calls)
     newd         :      0.50s CPU      0.69s WALL (       7 calls)
     mix_rho      :      0.14s CPU      0.13s WALL (       6 calls)

     Called by c_bands:
     init_us_2    :      0.91s CPU      0.86s WALL (     156 calls)
     init_us_2:cp :      0.91s CPU      0.86s WALL (     156 calls)
     cegterg      :     82.50s CPU     32.39s WALL (      72 calls)

     Called by *egterg:
     cdiaghg      :      0.17s CPU      0.13s WALL (     305 calls)
     h_psi        :     83.01s CPU     33.31s WALL (     317 calls)
     s_psi        :      1.90s CPU      1.14s WALL (     317 calls)
     g_psi        :      0.23s CPU      0.22s WALL (     233 calls)

     Called by h_psi:
     h_psi:calbec :      2.09s CPU      2.22s WALL (     317 calls)
     vloc_psi     :     78.95s CPU     29.69s WALL (     317 calls)
     add_vuspsi   :      1.71s CPU      1.09s WALL (     317 calls)

     General routines
     calbec       :      2.85s CPU      2.87s WALL (     389 calls)
     fft          :      0.91s CPU      0.84s WALL (      77 calls)
     ffts         :      0.03s CPU      0.03s WALL (       6 calls)
     fftw         :     80.04s CPU     99.42s WALL (    8326 calls)

     Parallel routines

     PWSCF        :   1m53.38s CPU   1m55.62s WALL


   This run was terminated on:  11:27:19   8Jul2025            

=------------------------------------------------------------------------------=
   JOB DONE.
=------------------------------------------------------------------------------=
