
     Program PWSCF v.7.2 starts on  3Jul2025 at 13: 5:11 

     This program is part of the open-source Quantum ESPRESSO suite
     for quantum simulation of materials; please cite
         "P. Giannozzi et al., J. Phys.:Condens. Matter 21 395502 (2009);
         "P. Giannozzi et al., J. Phys.:Condens. Matter 29 465901 (2017);
         "P. Giannozzi et al., J. Chem. Phys. 152 154105 (2020);
          URL http://www.quantum-espresso.org", 
     in publications or presentations arising from this work. More details at
     http://www.quantum-espresso.org/quote

     Parallel version (MPI & OpenMP), running on       2 processor cores
     Number of MPI processes:                 1
     Threads/MPI process:                     2

     MPI processes distributed on     1 nodes
     936 MiB available memory on the printing compute node when the environment starts

     Reading input from isolated_B.scf.in

     Current dimensions of program PWSCF are:
     Max number of different atomic species (ntypx) = 10
     Max number of k-points (npk) =  40000
     Max angular momentum in pseudopotentials (lmaxx) =  4
     file B.pbesol-n-rrkjus_psl.1.0.0.UPF: wavefunction(s)  2S renormalized

     gamma-point specific algorithms are used

     Subspace diagonalization in iterative solution of the eigenvalue problem:
     a serial algorithm will be used


     G-vector sticks info
     --------------------
     sticks:   dense  smooth     PW     G-vecs:    dense   smooth      PW
     Sum        8929    8929   2233               632851   632851   79117

     Using Slab Decomposition



     bravais-lattice index     =            1
     lattice parameter (alat)  =      20.0000  a.u.
     unit-cell volume          =    8000.0000 (a.u.)^3
     number of atoms/cell      =            1
     number of atomic types    =            1
     number of electrons       =         3.00
     number of Kohn-Sham states=            6
     kinetic-energy cutoff     =      70.0000  Ry
     charge density cutoff     =     280.0000  Ry
     scf convergence threshold =      1.0E-06
     mixing beta               =       0.7000
     number of iterations used =            8  plain     mixing
     Exchange-correlation= PBESOL
                           (   1   4  10   8   0   0   0)

     celldm(1)=  20.000000  celldm(2)=   0.000000  celldm(3)=   0.000000
     celldm(4)=   0.000000  celldm(5)=   0.000000  celldm(6)=   0.000000

     crystal axes: (cart. coord. in units of alat)
               a(1) = (   1.000000   0.000000   0.000000 )  
               a(2) = (   0.000000   1.000000   0.000000 )  
               a(3) = (   0.000000   0.000000   1.000000 )  

     reciprocal axes: (cart. coord. in units 2 pi/alat)
               b(1) = (  1.000000  0.000000  0.000000 )  
               b(2) = (  0.000000  1.000000  0.000000 )  
               b(3) = (  0.000000  0.000000  1.000000 )  


     PseudoPot. # 1 for B  read from file:
     ../../pseudo/B.pbesol-n-rrkjus_psl.1.0.0.UPF
     MD5 check sum: a3839a09b1a4e02f2a06a66adc9253fc
     Pseudo is Ultrasoft + core correction, Zval =  3.0
     Generated using &quot;atomic&quot; code by A. Dal Corso  v.6.3MaX
     Using radial grid of 1059 points,  4 beta functions with: 
                l(1) =   0
                l(2) =   0
                l(3) =   1
                l(4) =   1
     Q(r) pseudized with 0 coefficients 


     atomic species   valence    mass     pseudopotential
        B              3.00    10.81100     B ( 1.00)

     Starting magnetic structure 
     atomic species   magnetization
        B            1.000

     48 Sym. Ops., with inversion, found



   Cartesian axes

     site n.     atom                  positions (alat units)
         1           B   tau(   1) = (   0.0000000   0.0000000   0.0000000  )

     number of k points=     1  Marzari-Vanderbilt smearing, width (Ry)=  0.0350
                       cart. coord. in units 2pi/alat
        k(    1) = (   0.0000000   0.0000000   0.0000000), wk =   1.0000000

     Dense  grid:   316426 G-vectors     FFT dimensions: ( 108, 108, 108)

     Estimated max dynamical RAM per process >     596.04 MB
     Generating pointlists ...
     new r_m :   0.4125 (alat units)  8.2500 (a.u.) for type    1

     Initial potential from superposition of free atoms

     starting charge       2.9997, renormalised to       3.0000

     negative rho (up, down):  6.038E-04 1.505E-15
     Starting wfcs are    4 randomized atomic wfcs +    2 random wfcs

     total cpu time spent up to now is        5.4 secs

     per-process dynamical memory:   250.7 Mb

     Self-consistent Calculation

     iteration #  1     ecut=    70.00 Ry     beta= 0.70
     Davidson diagonalization with overlap
     ethr =  1.00E-02,  avg # of iterations =  5.5

     Threshold (ethr) on eigenvalues was too large:
     Diagonalizing with lowered threshold

     Davidson diagonalization with overlap
     ethr =  3.53E-05,  avg # of iterations = 10.5

     negative rho (up, down):  6.542E-04 2.655E-06

     total cpu time spent up to now is       19.0 secs

     total energy              =      -5.57442405 Ry
     estimated scf accuracy    <       0.00181792 Ry

     total magnetization       =     2.92 Bohr mag/cell
     absolute magnetization    =     2.93 Bohr mag/cell

     iteration #  2     ecut=    70.00 Ry     beta= 0.70
     Davidson diagonalization with overlap
     ethr =  6.06E-05,  avg # of iterations =  3.5

     negative rho (up, down):  6.367E-04 1.569E-05

     total cpu time spent up to now is       24.5 secs

     total energy              =      -5.70069507 Ry
     estimated scf accuracy    <       0.01509953 Ry

     total magnetization       =     0.97 Bohr mag/cell
     absolute magnetization    =     0.97 Bohr mag/cell

     iteration #  3     ecut=    70.00 Ry     beta= 0.70
     Davidson diagonalization with overlap
     ethr =  6.06E-05,  avg # of iterations =  1.5

     negative rho (up, down):  5.862E-04 7.839E-05

     total cpu time spent up to now is       28.8 secs

     total energy              =      -5.74558147 Ry
     estimated scf accuracy    <       0.01231258 Ry

     total magnetization       =     1.00 Bohr mag/cell
     absolute magnetization    =     1.00 Bohr mag/cell

     iteration #  4     ecut=    70.00 Ry     beta= 0.70
     Davidson diagonalization with overlap
     ethr =  6.06E-05,  avg # of iterations =  2.0

     negative rho (up, down):  4.445E-04 3.609E-04

     total cpu time spent up to now is       33.4 secs

     total energy              =      -5.79835136 Ry
     estimated scf accuracy    <       0.00773575 Ry

     total magnetization       =     1.00 Bohr mag/cell
     absolute magnetization    =     1.00 Bohr mag/cell

     iteration #  5     ecut=    70.00 Ry     beta= 0.70
     Davidson diagonalization with overlap
     ethr =  6.06E-05,  avg # of iterations =  2.5

     negative rho (up, down):  4.159E-04 2.977E-04

     total cpu time spent up to now is       38.4 secs

     total energy              =      -5.80100776 Ry
     estimated scf accuracy    <       0.00145174 Ry

     total magnetization       =     1.00 Bohr mag/cell
     absolute magnetization    =     1.00 Bohr mag/cell

     iteration #  6     ecut=    70.00 Ry     beta= 0.70
     Davidson diagonalization with overlap
     ethr =  4.84E-05,  avg # of iterations =  1.5

     negative rho (up, down):  4.118E-04 2.899E-04

     total cpu time spent up to now is       42.8 secs

     total energy              =      -5.80116561 Ry
     estimated scf accuracy    <       0.00055882 Ry

     total magnetization       =     1.00 Bohr mag/cell
     absolute magnetization    =     1.00 Bohr mag/cell

     iteration #  7     ecut=    70.00 Ry     beta= 0.70
     Davidson diagonalization with overlap
     ethr =  1.86E-05,  avg # of iterations =  1.0

     negative rho (up, down):  3.976E-04 2.752E-04

     total cpu time spent up to now is       47.0 secs

     total energy              =      -5.80130971 Ry
     estimated scf accuracy    <       0.00049617 Ry

     total magnetization       =     1.00 Bohr mag/cell
     absolute magnetization    =     1.00 Bohr mag/cell

     iteration #  8     ecut=    70.00 Ry     beta= 0.70
     Davidson diagonalization with overlap
     ethr =  1.65E-05,  avg # of iterations =  1.0

     negative rho (up, down):  3.469E-04 2.235E-04

     total cpu time spent up to now is       51.4 secs

     total energy              =      -5.80150817 Ry
     estimated scf accuracy    <       0.00038438 Ry

     total magnetization       =     1.00 Bohr mag/cell
     absolute magnetization    =     1.00 Bohr mag/cell

     iteration #  9     ecut=    70.00 Ry     beta= 0.70
     Davidson diagonalization with overlap
     ethr =  1.28E-05,  avg # of iterations =  2.0

     negative rho (up, down):  3.462E-04 2.230E-04

     total cpu time spent up to now is       56.2 secs

     total energy              =      -5.80164117 Ry
     estimated scf accuracy    <       0.00000212 Ry

     total magnetization       =     1.00 Bohr mag/cell
     absolute magnetization    =     1.00 Bohr mag/cell

     iteration # 10     ecut=    70.00 Ry     beta= 0.70
     Davidson diagonalization with overlap
     ethr =  7.06E-08,  avg # of iterations =  4.0

     negative rho (up, down):  3.526E-04 2.263E-04

     total cpu time spent up to now is       52.1 secs

     total energy              =      -5.80164887 Ry
     estimated scf accuracy    <       0.00000665 Ry

     total magnetization       =     1.00 Bohr mag/cell
     absolute magnetization    =     1.00 Bohr mag/cell

     iteration # 11     ecut=    70.00 Ry     beta= 0.70
     Davidson diagonalization with overlap
     ethr =  7.06E-08,  avg # of iterations =  2.5

     negative rho (up, down):  3.534E-04 2.265E-04

     Magnetic moment per site  (integrated on atomic sphere of radius R)
     atom   1 (R=0.413)  charge=  2.9996  magn=  0.9995

     total cpu time spent up to now is       56.6 secs

     End of self-consistent calculation

 ------ SPIN UP ------------


          k = 0.0000 0.0000 0.0000 ( 39559 PWs)   bands (ev):

    -9.7160  -3.8636  -3.8632  -3.8631  -0.4501   0.9048

 ------ SPIN DOWN ----------


          k = 0.0000 0.0000 0.0000 ( 39559 PWs)   bands (ev):

    -8.4759  -2.7404  -2.7404  -2.7389  -0.2354   1.0617

     the Fermi energy is    -3.9121 ev

!    total energy              =      -5.80165049 Ry
     estimated scf accuracy    <       0.00000016 Ry
     smearing contrib. (-TS)   =      -0.01761448 Ry
     internal energy E=F+TS    =      -5.78403601 Ry

     The total energy is F=E-TS. E is the sum of the following terms:
     one-electron contribution =      -4.97286656 Ry
     hartree contribution      =       2.75356369 Ry
     xc contribution           =      -2.28794928 Ry
     ewald contribution        =      -1.27678387 Ry

     total magnetization       =     1.00 Bohr mag/cell
     absolute magnetization    =     1.00 Bohr mag/cell

     convergence has been achieved in  11 iterations

     Writing all to output data dir ../../outdir/boron.save/

     init_run     :      6.38s CPU      5.29s WALL (       1 calls)
     electrons    :     78.28s CPU     51.32s WALL (       1 calls)

     Called by init_run:
     wfcinit      :      1.96s CPU      1.52s WALL (       1 calls)
     potinit      :      1.63s CPU      1.37s WALL (       1 calls)
     hinit0       :      2.24s CPU      1.77s WALL (       1 calls)

     Called by electrons:
     c_bands      :     37.83s CPU     28.02s WALL (      12 calls)
     sum_band     :     16.31s CPU     13.27s WALL (      12 calls)
     v_of_rho     :     17.88s CPU     12.94s WALL (      12 calls)
     newd         :      4.29s CPU     -5.15s WALL (      12 calls)
     mix_rho      :      3.28s CPU      3.25s WALL (      12 calls)

     Called by c_bands:
     init_us_2    :      0.43s CPU      0.38s WALL (      50 calls)
     init_us_2:cp :      0.42s CPU      0.38s WALL (      50 calls)
     regterg      :     37.35s CPU     27.60s WALL (      24 calls)

     Called by *egterg:
     rdiaghg      :      0.26s CPU      0.26s WALL (      97 calls)
     h_psi        :     36.07s CPU     26.43s WALL (     101 calls)
     s_psi        :      0.22s CPU      0.15s WALL (     101 calls)
     g_psi        :      0.19s CPU      0.18s WALL (      75 calls)

     Called by h_psi:
     h_psi:calbec :      0.30s CPU      0.31s WALL (     101 calls)
     vloc_psi     :     35.38s CPU     25.76s WALL (     101 calls)
     add_vuspsi   :      0.19s CPU      0.15s WALL (     101 calls)

     General routines
     calbec       :      0.42s CPU      0.40s WALL (     125 calls)
     fft          :      8.34s CPU      5.17s WALL (     181 calls)
     ffts         :      0.48s CPU      0.29s WALL (      12 calls)
     fftw         :     35.25s CPU     24.63s WALL (     566 calls)

     Parallel routines

     PWSCF        :   1m24.80s CPU     56.84s WALL


   This run was terminated on:  13: 6: 7   3Jul2025            

=------------------------------------------------------------------------------=
   JOB DONE.
=------------------------------------------------------------------------------=
