
     Program PWSCF v.7.2 starts on  3Jul2025 at 18:37: 6 

     This program is part of the open-source Quantum ESPRESSO suite
     for quantum simulation of materials; please cite
         "P. Giannozzi et al., J. Phys.:Condens. Matter 21 395502 (2009);
         "P. Giannozzi et al., J. Phys.:Condens. Matter 29 465901 (2017);
         "P. Giannozzi et al., J. Chem. Phys. 152 154105 (2020);
          URL http://www.quantum-espresso.org", 
     in publications or presentations arising from this work. More details at
     http://www.quantum-espresso.org/quote

     Parallel version (MPI & OpenMP), running on       2 processor cores
     Number of MPI processes:                 1
     Threads/MPI process:                     2

     MPI processes distributed on     1 nodes
     146 MiB available memory on the printing compute node when the environment starts

     Reading input from alpha.bands.in

     Current dimensions of program PWSCF are:
     Max number of different atomic species (ntypx) = 10
     Max number of k-points (npk) =  40000
     Max angular momentum in pseudopotentials (lmaxx) =  4

     Atomic positions and unit cell read from directory:
     ../../outdir/borophene.save/
     Atomic positions from file used, from input discarded

     file B.pbesol-n-rrkjus_psl.1.0.0.UPF: wavefunction(s)  2S renormalized

     IMPORTANT: XC functional enforced from input :
     Exchange-correlation= PBESOL
                           (   1   4  10   8   0   0   0)
     Any further DFT definition will be discarded
     Please, verify this is what you really want


     Subspace diagonalization in iterative solution of the eigenvalue problem:
     a serial algorithm will be used


     G-vector sticks info
     --------------------
     sticks:   dense  smooth     PW     G-vecs:    dense   smooth      PW
     Sum        1777    1777    499               120595   120595   17855

     Using Slab Decomposition



     bravais-lattice index     =            4
     lattice parameter (alat)  =       9.5830  a.u.
     unit-cell volume          =    1524.2812 (a.u.)^3
     number of atoms/cell      =            8
     number of atomic types    =            1
     number of electrons       =        24.00
     number of Kohn-Sham states=           16
     kinetic-energy cutoff     =      70.0000  Ry
     charge density cutoff     =     280.0000  Ry
     Exchange-correlation= PBESOL
                           (   1   4  10   8   0   0   0)

     celldm(1)=   9.583000  celldm(2)=   0.000000  celldm(3)=   2.000000
     celldm(4)=   0.000000  celldm(5)=   0.000000  celldm(6)=   0.000000

     crystal axes: (cart. coord. in units of alat)
               a(1) = (   1.000000   0.000000   0.000000 )  
               a(2) = (  -0.500000   0.866025   0.000000 )  
               a(3) = (   0.000000   0.000000   2.000000 )  

     reciprocal axes: (cart. coord. in units 2 pi/alat)
               b(1) = (  1.000000  0.577350 -0.000000 )  
               b(2) = (  0.000000  1.154701  0.000000 )  
               b(3) = (  0.000000 -0.000000  0.500000 )  


     PseudoPot. # 1 for B  read from file:
     ../../pseudo/B.pbesol-n-rrkjus_psl.1.0.0.UPF
     MD5 check sum: a3839a09b1a4e02f2a06a66adc9253fc
     Pseudo is Ultrasoft + core correction, Zval =  3.0
     Generated using &quot;atomic&quot; code by A. Dal Corso  v.6.3MaX
     Using radial grid of 1059 points,  4 beta functions with: 
                l(1) =   0
                l(2) =   0
                l(3) =   1
                l(4) =   1
     Q(r) pseudized with 0 coefficients 


     atomic species   valence    mass     pseudopotential
        B              3.00    10.81100     B ( 1.00)

     24 Sym. Ops., with inversion, found



   Cartesian axes

     site n.     atom                  positions (alat units)
         1           B   tau(   1) = (   0.3333330   0.0000000   0.0000000  )
         2           B   tau(   2) = (   0.6666670   0.0000000   0.0000000  )
         3           B   tau(   3) = (  -0.1666665   0.2886748   0.0000000  )
         4           B   tau(   4) = (   0.1666665   0.2886748   0.0000000  )
         5           B   tau(   5) = (   0.5000005   0.2886748   0.0000000  )
         6           B   tau(   6) = (  -0.3333335   0.5773506   0.0000000  )
         7           B   tau(   7) = (  -0.0000005   0.5773506   0.0000000  )
         8           B   tau(   8) = (   0.3333335   0.5773506   0.0000000  )

     number of k points=    50  Marzari-Vanderbilt smearing, width (Ry)=  0.0350
                       cart. coord. in units 2pi/alat
        k(    1) = (   0.0000000   0.0000000   0.2500000), wk =   0.0400000
        k(    2) = (   0.0000000   0.0320750   0.2500000), wk =   0.0400000
        k(    3) = (   0.0000000   0.0641500   0.2500000), wk =   0.0400000
        k(    4) = (   0.0000000   0.0962250   0.2500000), wk =   0.0400000
        k(    5) = (   0.0000000   0.1283001   0.2500000), wk =   0.0400000
        k(    6) = (   0.0000000   0.1603751   0.2500000), wk =   0.0400000
        k(    7) = (   0.0000000   0.1924501   0.2500000), wk =   0.0400000
        k(    8) = (   0.0000000   0.2245251   0.2500000), wk =   0.0400000
        k(    9) = (   0.0000000   0.2566001   0.2500000), wk =   0.0400000
        k(   10) = (   0.0000000   0.2886751   0.2500000), wk =   0.0400000
        k(   11) = (   0.0000000   0.3207501   0.2500000), wk =   0.0400000
        k(   12) = (   0.0000000   0.3528252   0.2500000), wk =   0.0400000
        k(   13) = (   0.0000000   0.3849002   0.2500000), wk =   0.0400000
        k(   14) = (   0.0000000   0.4169752   0.2500000), wk =   0.0400000
        k(   15) = (   0.0000000   0.4490502   0.2500000), wk =   0.0400000
        k(   16) = (   0.0000000   0.4811252   0.2500000), wk =   0.0400000
        k(   17) = (   0.0000000   0.5132002   0.2500000), wk =   0.0400000
        k(   18) = (   0.0000000   0.5452753   0.2500000), wk =   0.0400000
        k(   19) = (   0.0000000   0.5773503   0.2500000), wk =   0.0400000
        k(   20) = (   0.0333330   0.5773497   0.2500000), wk =   0.0400000
        k(   21) = (   0.0666660   0.5773491   0.2500000), wk =   0.0400000
        k(   22) = (   0.0999990   0.5773485   0.2500000), wk =   0.0400000
        k(   23) = (   0.1333320   0.5773480   0.2500000), wk =   0.0400000
        k(   24) = (   0.1666650   0.5773474   0.2500000), wk =   0.0400000
        k(   25) = (   0.1999980   0.5773468   0.2500000), wk =   0.0400000
        k(   26) = (   0.2333310   0.5773462   0.2500000), wk =   0.0400000
        k(   27) = (   0.2666640   0.5773457   0.2500000), wk =   0.0400000
        k(   28) = (   0.2999970   0.5773451   0.2500000), wk =   0.0400000
        k(   29) = (   0.3333300   0.5773445   0.2500000), wk =   0.0400000
        k(   30) = (   0.3174571   0.5498519   0.2500000), wk =   0.0400000
        k(   31) = (   0.3015843   0.5223593   0.2500000), wk =   0.0400000
        k(   32) = (   0.2857114   0.4948667   0.2500000), wk =   0.0400000
        k(   33) = (   0.2698386   0.4673741   0.2500000), wk =   0.0400000
        k(   34) = (   0.2539657   0.4398815   0.2500000), wk =   0.0400000
        k(   35) = (   0.2380929   0.4123889   0.2500000), wk =   0.0400000
        k(   36) = (   0.2222200   0.3848963   0.2500000), wk =   0.0400000
        k(   37) = (   0.2063471   0.3574037   0.2500000), wk =   0.0400000
        k(   38) = (   0.1904743   0.3299111   0.2500000), wk =   0.0400000
        k(   39) = (   0.1746014   0.3024185   0.2500000), wk =   0.0400000
        k(   40) = (   0.1587286   0.2749260   0.2500000), wk =   0.0400000
        k(   41) = (   0.1428557   0.2474334   0.2500000), wk =   0.0400000
        k(   42) = (   0.1269829   0.2199408   0.2500000), wk =   0.0400000
        k(   43) = (   0.1111100   0.1924482   0.2500000), wk =   0.0400000
        k(   44) = (   0.0952371   0.1649556   0.2500000), wk =   0.0400000
        k(   45) = (   0.0793643   0.1374630   0.2500000), wk =   0.0400000
        k(   46) = (   0.0634914   0.1099704   0.2500000), wk =   0.0400000
        k(   47) = (   0.0476186   0.0824778   0.2500000), wk =   0.0400000
        k(   48) = (   0.0317457   0.0549852   0.2500000), wk =   0.0400000
        k(   49) = (   0.0158729   0.0274926   0.2500000), wk =   0.0400000
        k(   50) = (   0.0000000   0.0000000   0.2500000), wk =   0.0400000

     Dense  grid:   120595 G-vectors     FFT dimensions: (  54,  54, 108)

     Estimated max dynamical RAM per process >     150.72 MB

     The potential is recalculated from file :
     ../../outdir/borophene.save/charge-density


     negative rho (up, down):  8.377E-04 0.000E+00
     Starting wfcs are   32 randomized atomic wfcs

     Band Structure Calculation
     Davidson diagonalization with overlap
     c_bands:  1 eigenvalues not converged

     ethr =  4.17E-09,  avg # of iterations = 28.6

     total cpu time spent up to now is      336.7 secs

     End of band structure calculation

          k = 0.0000 0.0000 0.2500 ( 15052 PWs)   bands (ev):

   -16.1932 -12.0820 -12.0021 -12.0021  -9.7606  -9.7606  -7.6347  -7.0606
    -2.1465  -2.1465  -0.6663  -0.1587  -0.1586   0.1166   0.1166   0.4837

          k = 0.0000 0.0321 0.2500 ( 15066 PWs)   bands (ev):

   -16.1897 -12.2230 -12.0056 -11.8632  -9.7667  -9.7515  -7.6182  -7.0553
    -2.1950  -2.1871  -0.7911  -0.2088  -0.0864   0.1604   0.1682   0.5309

          k = 0.0000 0.0642 0.2500 ( 15060 PWs)   bands (ev):

   -16.1793 -12.3982 -12.0158 -11.6949  -9.7836  -9.7243  -7.5702  -7.0394
    -2.3285  -2.2999  -1.0414  -0.3244  -0.0029   0.2829   0.3113   0.6825

          k = 0.0000 0.0962 0.2500 ( 15046 PWs)   bands (ev):

   -16.1621 -12.5746 -12.0321 -11.5314  -9.8066  -9.6798  -7.4945  -7.0129
    -2.5220  -2.4647  -1.3251  -0.4621   0.0188   0.4644   0.5206   0.8804

          k = 0.0000 0.1283 0.2500 ( 15046 PWs)   bands (ev):

   -16.1380 -12.7506 -12.0535 -11.3775  -9.8287  -9.6193  -7.3969  -6.9758
    -2.7524  -2.6612  -1.6182  -0.6031  -0.0011   0.6852   0.7727   1.0940

          k = 0.0000 0.1604 0.2500 ( 15052 PWs)   bands (ev):

   -16.1071 -12.9251 -12.0789 -11.2382  -9.8415  -9.5441  -7.2839  -6.9283
    -3.0033  -2.8738  -1.9123  -0.7402  -0.0430   0.9307   1.0512   1.3241

          k = 0.0000 0.1925 0.2500 ( 15052 PWs)   bands (ev):

   -16.0696 -13.0975 -12.1071 -11.1197  -9.8355  -9.4559  -7.1624  -6.8705
    -3.2643  -3.0905  -2.2037  -0.8703  -0.0965   1.1907   1.3451   1.5677

          k = 0.0000 0.2245 0.2500 ( 15052 PWs)   bands (ev):

   -16.0256 -13.2672 -12.1369 -11.0283  -9.8020  -9.3564  -7.0397  -6.8024
    -3.5285  -3.3024  -2.4901  -0.9918  -0.1558   1.4583   1.6474   1.8229

          k = 0.0000 0.2566 0.2500 ( 15062 PWs)   bands (ev):

   -15.9754 -13.4336 -12.1672 -10.9673  -9.7358  -9.2475  -6.9236  -6.7244
    -3.7911  -3.5015  -2.7701  -1.1038  -0.2171   1.7285   1.9527   2.0888

          k = 0.0000 0.2887 0.2500 ( 15070 PWs)   bands (ev):

   -15.9192 -13.5959 -12.1971 -10.9350  -9.6376  -9.1313  -6.8222  -6.6367
    -4.0483  -3.6804  -3.0423  -1.2059  -0.2778   1.9973   2.2570   2.3646

          k = 0.0000 0.3208 0.2500 ( 15064 PWs)   bands (ev):

   -15.8575 -13.7535 -12.2257 -10.9253  -9.5131  -9.0100  -6.7440  -6.5398
    -4.2970  -3.8322  -3.3057  -1.2977  -0.3359   2.2612   2.5569   2.6498

          k = 0.0000 0.3528 0.2500 ( 15084 PWs)   bands (ev):

   -15.7908 -13.9055 -12.2523 -10.9308  -9.3701  -8.8860  -6.6961  -6.4343
    -4.5339  -3.9510  -3.5591  -1.3790  -0.3898   2.5167   2.8489   2.9438

          k = 0.0000 0.3849 0.2500 ( 15076 PWs)   bands (ev):

   -15.7200 -14.0507 -12.2764 -10.9447  -9.2168  -8.7625  -6.6829  -6.3211
    -4.7558  -4.0339  -3.8010  -1.4498  -0.4383   2.7593   3.1294   3.2460

          k = 0.0000 0.4170 0.2500 ( 15088 PWs)   bands (ev):

   -15.6465 -14.1876 -12.2975 -10.9622  -9.0605  -8.6431  -6.7042  -6.2019
    -4.9585  -4.0822  -4.0297  -1.5097  -0.4807   2.9826   3.3939   3.5561

          k = 0.0000 0.4491 0.2500 ( 15086 PWs)   bands (ev):

   -15.5724 -14.3138 -12.3152 -10.9799  -8.9089  -8.5326  -6.7535  -6.0795
    -5.1374  -4.2421  -4.1019  -1.5589  -0.5162   3.1740   3.6368   3.8113

          k = 0.0000 0.4811 0.2500 ( 15098 PWs)   bands (ev):

   -15.5012 -14.4256 -12.3292 -10.9955  -8.7707  -8.4365  -6.8193  -5.9586
    -5.2868  -4.4331  -4.1025  -1.5972  -0.5442   3.3025   3.6991   3.8497

          k = 0.0000 0.5132 0.2500 ( 15102 PWs)   bands (ev):

   -15.4390 -14.5170 -12.3394 -11.0076  -8.6569  -8.3611  -6.8859  -5.8486
    -5.4003  -4.5933  -4.0940  -1.6245  -0.5645   3.3243   3.6942   4.0210

          k = 0.0000 0.5453 0.2500 ( 15112 PWs)   bands (ev):

   -15.3946 -14.5790 -12.3456 -11.0151  -8.5805  -8.3126  -6.9360  -5.7661
    -5.4716  -4.7059  -4.0851  -1.6410  -0.5768   3.2916   3.7435   4.1348

          k = 0.0000 0.5774 0.2500 ( 15080 PWs)   bands (ev):

   -15.3781 -14.6013 -12.3476 -11.0177  -8.5533  -8.2958  -6.9547  -5.7344
    -5.4960  -4.7477  -4.0815  -1.6464  -0.5809   3.2751   3.7669   4.1751

          k = 0.0333 0.5773 0.2500 ( 15114 PWs)   bands (ev):

   -15.3740 -14.6039 -12.3713 -10.9824  -8.5799  -8.2734  -6.9859  -5.7282
    -5.4653  -4.7477  -4.0858  -1.7298  -0.4826   3.2731   3.6431   4.2977

          k = 0.0667 0.5773 0.2500 ( 15090 PWs)   bands (ev):

   -15.3616 -14.6118 -12.4345 -10.8839  -8.6433  -8.2228  -7.0716  -5.7096
    -5.3813  -4.7480  -4.0989  -1.9211  -0.2462   3.2670   3.4395   4.4002

          k = 0.1000 0.5773 0.2500 ( 15086 PWs)   bands (ev):

   -15.3410 -14.6258 -12.5209 -10.7387  -8.7239  -8.1636  -7.1945  -5.6786
    -5.2615  -4.7501  -4.1209  -2.1468   0.0557   3.2468   3.2557   4.2394

          k = 0.1333 0.5773 0.2500 ( 15066 PWs)   bands (ev):

   -15.3122 -14.6467 -12.6151 -10.5622  -8.8138  -8.1038  -7.3382  -5.6353
    -5.1233  -4.7566  -4.1518  -2.3724   0.3903   3.0821   3.2374   3.9631

          k = 0.1667 0.5773 0.2500 ( 15070 PWs)   bands (ev):

   -15.2752 -14.6760 -12.7059 -10.3662  -8.9096  -8.0472  -7.4901  -5.5796
    -4.9799  -4.7711  -4.1914  -2.5814   0.7432   2.9517   3.2092   3.6913

          k = 0.2000 0.5773 0.2500 ( 15064 PWs)   bands (ev):

   -15.2300 -14.7146 -12.7859 -10.1598  -9.0099  -7.9957  -7.6404  -5.5116
    -4.8409  -4.7984  -4.2389  -2.7634   1.1065   2.8586   3.1675   3.4256

          k = 0.2333 0.5773 0.2500 ( 15070 PWs)   bands (ev):

   -15.1768 -14.7633 -12.8504  -9.9515  -9.1134  -7.9515  -7.7803  -5.4312
    -4.8437  -4.7139  -4.2924  -2.9104   1.4728   2.8043   3.1095   3.1671

          k = 0.2667 0.5773 0.2500 ( 15070 PWs)   bands (ev):

   -15.1155 -14.8225 -12.8969  -9.7514  -9.2196  -7.9167  -7.8996  -5.3386
    -4.9113  -4.6048  -4.3494  -3.0164   1.8323   2.7892   2.9167   3.0364

          k = 0.3000 0.5773 0.2500 ( 15088 PWs)   bands (ev):

   -15.0461 -14.8914 -12.9245  -9.5736  -9.3276  -7.9846  -7.8938  -5.2336
    -5.0028  -4.5183  -4.4059  -3.0788   2.1672   2.6749   2.8127   2.9547

          k = 0.3333 0.5773 0.2500 ( 15090 PWs)   bands (ev):

   -14.9689 -14.9689 -12.9334  -9.4368  -9.4368  -8.0172  -7.8855  -5.1164
    -5.1164  -4.4575  -4.4575  -3.0988   2.4424   2.4425   2.8734   2.8735

          k = 0.3175 0.5499 0.2500 ( 15100 PWs)   bands (ev):

   -15.0490 -14.8880 -12.9258  -9.5414  -9.3611  -7.9840  -7.8938  -5.2411
    -4.9934  -4.4972  -4.4247  -3.0822   2.2299   2.6000   2.8019   2.9640

          k = 0.3016 0.5224 0.2500 ( 15090 PWs)   bands (ev):

   -15.1336 -14.8001 -12.9040  -9.6463  -9.3427  -7.9203  -7.8854  -5.3767
    -4.8594  -4.5232  -4.4158  -3.0357   2.0266   2.6339   2.7371   3.0842

          k = 0.2857 0.4949 0.2500 ( 15078 PWs)   bands (ev):

   -15.2208 -14.7053 -12.8697  -9.7511  -9.3699  -7.9665  -7.7353  -5.5185
    -4.7144  -4.5315  -4.4281  -2.9639   1.8325   2.5788   2.6765   3.2318

          k = 0.2698 0.4674 0.2500 ( 15064 PWs)   bands (ev):

   -15.3091 -14.6036 -12.8249  -9.8557  -9.4256  -8.0331  -7.5541  -5.6627
    -4.5584  -4.5189  -4.4566  -2.8709   1.6481   2.4783   2.6154   3.4039

          k = 0.2540 0.4399 0.2500 ( 15058 PWs)   bands (ev):

   -15.3971 -14.4951 -12.7713  -9.9598  -9.4954  -8.1198  -7.3608  -5.8059
    -4.4937  -4.4835  -4.3915  -2.7598   1.4733   2.3575   2.5488   3.5977

          k = 0.2381 0.4124 0.2500 ( 15064 PWs)   bands (ev):

   -15.4836 -14.3801 -12.7107 -10.0636  -9.5699  -8.2248  -7.1720  -5.9459
    -4.5291  -4.4245  -4.2138  -2.6333   1.3085   2.2285   2.4723   3.8090

          k = 0.2222 0.3849 0.2500 ( 15070 PWs)   bands (ev):

   -15.5675 -14.2586 -12.6448 -10.1673  -9.6429  -8.3456  -7.0031  -6.0809
    -4.5496  -4.3423  -4.0254  -2.4933   1.1536   2.0970   2.3825   3.7921

          k = 0.2063 0.3574 0.2500 ( 15044 PWs)   bands (ev):

   -15.6480 -14.1308 -12.5754 -10.2713  -9.7104  -8.4789  -6.8696  -6.2096
    -4.5397  -4.2379  -3.8263  -2.3415   1.0089   1.9662   2.2772   3.6480

          k = 0.1905 0.3299 0.2500 ( 15050 PWs)   bands (ev):

   -15.7244 -13.9970 -12.5042 -10.3762  -9.7697  -8.6209  -6.7846  -6.3310
    -4.4855  -4.1130  -3.6166  -2.1793   0.8744   1.8374   2.1549   3.5130

          k = 0.1746 0.3024 0.2500 ( 15048 PWs)   bands (ev):

   -15.7962 -13.8572 -12.4330 -10.4829  -9.8188  -8.7676  -6.7548  -6.4443
    -4.3787  -3.9694  -3.3966  -2.0081   0.7501   1.7112   2.0150   3.2995

          k = 0.1587 0.2749 0.2500 ( 15066 PWs)   bands (ev):

   -15.8629 -13.7119 -12.3633 -10.5924  -9.8563  -8.9152  -6.7774  -6.5491
    -4.2207  -3.8092  -3.1663  -1.8290   0.6361   1.5877   1.8576   2.9019

          k = 0.1429 0.2474 0.2500 ( 15054 PWs)   bands (ev):

   -15.9241 -13.5612 -12.2971 -10.7061  -9.8814  -9.0594  -6.8424  -6.6447
    -4.0198  -3.6343  -2.9261  -1.6434   0.5322   1.4665   1.6833   2.5122

          k = 0.1270 0.2199 0.2500 ( 15068 PWs)   bands (ev):

   -15.9795 -13.4055 -12.2356 -10.8253  -9.8936  -9.1968  -6.9372  -6.7310
    -3.7875  -3.4472  -2.6763  -1.4527   0.4384   1.3470   1.4936   2.1332

          k = 0.1111 0.1924 0.2500 ( 15074 PWs)   bands (ev):

   -16.0289 -13.2452 -12.1803 -10.9513  -9.8934  -9.3237  -7.0499  -6.8076
    -3.5348  -3.2504  -2.4172  -1.2585   0.3543   1.2280   1.2909   1.7676

          k = 0.0952 0.1650 0.2500 ( 15080 PWs)   bands (ev):

   -16.0721 -13.0808 -12.1320 -11.0850  -9.8821  -9.4372  -7.1704  -6.8743
    -3.2719  -3.0472  -2.1497  -1.0628   0.2795   1.0785   1.1084   1.4186

          k = 0.0794 0.1375 0.2500 ( 15068 PWs)   bands (ev):

   -16.1088 -12.9127 -12.0913 -11.2270  -9.8618  -9.5353  -7.2901  -6.9310
    -3.0079  -2.8419  -1.8746  -0.8680   0.2127   0.8615   0.9873   1.0903

          k = 0.0635 0.1100 0.2500 ( 15044 PWs)   bands (ev):

   -16.1391 -12.7418 -12.0585 -11.3771  -9.8358  -9.6163  -7.4013  -6.9775
    -2.7531  -2.6409  -1.5940  -0.6775   0.1515   0.6474   0.7889   0.8643

          k = 0.0476 0.0825 0.2500 ( 15056 PWs)   bands (ev):

   -16.1627 -12.5686 -12.0335 -11.5346  -9.8081  -9.6795  -7.4972  -7.0138
    -2.5202  -2.4539  -1.3112  -0.4965   0.0901   0.4471   0.5240   0.7406

          k = 0.0317 0.0550 0.2500 ( 15064 PWs)   bands (ev):

   -16.1796 -12.3944 -12.0159 -11.6980  -9.7836  -9.7246  -7.5714  -7.0398
    -2.3263  -2.2956  -1.0346  -0.3339   0.0159   0.2771   0.3102   0.6220

          k = 0.0159 0.0275 0.2500 ( 15066 PWs)   bands (ev):

   -16.1898 -12.2213 -12.0055 -11.8649  -9.7666  -9.7516  -7.6185  -7.0554
    -2.1941  -2.1862  -0.7889  -0.2091  -0.0861   0.1593   0.1674   0.5248

          k = 0.0000 0.0000 0.2500 ( 15052 PWs)   bands (ev):

   -16.1932 -12.0820 -12.0021 -12.0021  -9.7606  -9.7606  -7.6347  -7.0606
    -2.1465  -2.1465  -0.6663  -0.1587  -0.1586   0.1166   0.1166   0.4836

     Writing all to output data dir ../../outdir/borophene.save/

     init_run     :      1.09s CPU      1.00s WALL (       1 calls)
     electrons    :    436.57s CPU    335.65s WALL (       1 calls)

     Called by init_run:
     wfcinit      :      0.00s CPU      0.00s WALL (       1 calls)
     potinit      :      0.18s CPU      0.16s WALL (       1 calls)
     hinit0       :      0.70s CPU      0.61s WALL (       1 calls)

     Called by electrons:
     c_bands      :    436.57s CPU    335.65s WALL (       1 calls)
     v_of_rho     :      0.17s CPU      0.14s WALL (       1 calls)
     newd         :      0.06s CPU      0.09s WALL (       1 calls)

     Called by c_bands:
     init_us_2    :      0.29s CPU      0.29s WALL (      50 calls)
     init_us_2:cp :      0.28s CPU      0.29s WALL (      50 calls)
     cegterg      :    402.89s CPU    323.84s WALL (      97 calls)

     Called by *egterg:
     cdiaghg      :      0.91s CPU      0.66s WALL (    1480 calls)
     h_psi        :    388.31s CPU    245.57s WALL (    1577 calls)
     s_psi        :     10.83s CPU     64.64s WALL (    1577 calls)
     g_psi        :      1.63s CPU      1.48s WALL (    1430 calls)

     Called by h_psi:
     h_psi:calbec :     10.86s CPU      9.17s WALL (    1577 calls)
     vloc_psi     :    367.89s CPU    230.29s WALL (    1577 calls)
     add_vuspsi   :      8.12s CPU      4.72s WALL (    1577 calls)

     General routines
     calbec       :     10.84s CPU      9.16s WALL (    1577 calls)
     fft          :      0.59s CPU      0.49s WALL (      12 calls)
     fftw         :    325.02s CPU    208.18s WALL (   28068 calls)
     davcio       :      0.11s CPU      0.22s WALL (     100 calls)

     Parallel routines

     PWSCF        :   7m17.98s CPU   5m37.45s WALL


   This run was terminated on:  18:42:43   3Jul2025            

=------------------------------------------------------------------------------=
   JOB DONE.
=------------------------------------------------------------------------------=
