
     Program BANDS v.7.2 starts on  3Jul2025 at 18:46:16 

     This program is part of the open-source Quantum ESPRESSO suite
     for quantum simulation of materials; please cite
         "P. Giannozzi et al., J. Phys.:Condens. Matter 21 395502 (2009);
         "P. Giannozzi et al., J. Phys.:Condens. Matter 29 465901 (2017);
         "P. Giannozzi et al., J. Chem. Phys. 152 154105 (2020);
          URL http://www.quantum-espresso.org", 
     in publications or presentations arising from this work. More details at
     http://www.quantum-espresso.org/quote

     Parallel version (MPI & OpenMP), running on       2 processor cores
     Number of MPI processes:                 1
     Threads/MPI process:                     2

     MPI processes distributed on     1 nodes
     213 MiB available memory on the printing compute node when the environment starts


     Reading xml data from directory:

     ../../outdir/borophene.save/
     file B.pbesol-n-rrkjus_psl.1.0.0.UPF: wavefunction(s)  2S renormalized

     IMPORTANT: XC functional enforced from input :
     Exchange-correlation= PBESOL
                           (   1   4  10   8   0   0   0)
     Any further DFT definition will be discarded
     Please, verify this is what you really want


     G-vector sticks info
     --------------------
     sticks:   dense  smooth     PW     G-vecs:    dense   smooth      PW
     Sum        1777    1777    499               120595   120595   17855

     Using Slab Decomposition


     negative rho (up, down):  8.377E-04 0.000E+00
     Reading collected, re-writing distributed wavefunctions
     high-symmetry point:  0.0000 0.0000 0.2500   x coordinate   0.0000
     high-symmetry point:  0.0000 0.5774 0.2500   x coordinate   0.5774
     high-symmetry point:  0.3333 0.5773 0.2500   x coordinate   0.9107
     high-symmetry point:  0.0000 0.0000 0.2500   x coordinate   1.5773

     Plottable bands (eV) written to file alphabands.dat.gnu
     Bands written to file alphabands.dat

 **************************************************************************

                    xk=(   0.00000,   0.00000,   0.25000  )

     point group D_6h(6/mmm)
     there are 12 classes
     the character table:

       E     2C6   2C3   C2    3C2'  3C2'' i     2S3   2S6   s_h   3s_d  3s_v 
A_1g   1.00  1.00  1.00  1.00  1.00  1.00  1.00  1.00  1.00  1.00  1.00  1.00
A_2g   1.00  1.00  1.00  1.00 -1.00 -1.00  1.00  1.00  1.00  1.00 -1.00 -1.00
B_1g   1.00 -1.00  1.00 -1.00  1.00 -1.00  1.00 -1.00  1.00 -1.00  1.00 -1.00
B_2g   1.00 -1.00  1.00 -1.00 -1.00  1.00  1.00 -1.00  1.00 -1.00 -1.00  1.00
E_1g   2.00  1.00 -1.00 -2.00  0.00  0.00  2.00  1.00 -1.00 -2.00  0.00  0.00
E_2g   2.00 -1.00 -1.00  2.00  0.00  0.00  2.00 -1.00 -1.00  2.00  0.00  0.00
A_1u   1.00  1.00  1.00  1.00  1.00  1.00 -1.00 -1.00 -1.00 -1.00 -1.00 -1.00
A_2u   1.00  1.00  1.00  1.00 -1.00 -1.00 -1.00 -1.00 -1.00 -1.00  1.00  1.00
B_1u   1.00 -1.00  1.00 -1.00  1.00 -1.00 -1.00  1.00 -1.00  1.00 -1.00  1.00
B_2u   1.00 -1.00  1.00 -1.00 -1.00  1.00 -1.00  1.00 -1.00  1.00  1.00 -1.00
E_1u   2.00  1.00 -1.00 -2.00  0.00  0.00 -2.00 -1.00  1.00  2.00  0.00  0.00
E_2u   2.00 -1.00 -1.00  2.00  0.00  0.00 -2.00  1.00  1.00 -2.00  0.00  0.00

     the symmetry operations in each class and the name of the first element:

     E        1
                                                                 
     2C6      5    6
                                                                 
     2C3      7    8
                                                                 
     C2       2
                                                                 
     3C2'     4   12   11
                                                                 
     3C2''    3    9   10
                                                                 
     i       13
                                                                 
     2S3     17   18
                                                                 
     2S6     19   20
                                                                 
     s_h     14
                                                                 
     3s_d    16   24   23
                                                                 
     3s_v    15   21   22
                                                                 

     Band symmetry, D_6h(6/mmm) point group:

     e(  1 -  1) =    -16.19320  eV     1   --> A_1g           
     e(  2 -  2) =    -12.08199  eV     1   --> B_2u           
     e(  3 -  4) =    -12.00214  eV     2   --> E_2g           
     e(  5 -  6) =     -9.76061  eV     2   --> E_1u           
     e(  7 -  7) =     -7.63469  eV     1   --> A_1g           
     e(  8 -  8) =     -7.06061  eV     1   --> A_2u           
     e(  9 - 10) =     -2.14655  eV     2   --> E_2g           
     e( 11 - 11) =     -0.66632  eV     1   --> B_1g           
     e( 12 - 13) =     -0.15865  eV     2   --> E_2u           
     e( 14 - 15) =      0.11661  eV     2   --> E_1u           
     e( 16 - 16) =      0.48365  eV     1   -->   ?

 **************************************************************************

 **************************************************************************

                    xk=(   0.00000,   0.03208,   0.25000  )

     point group C_2v (mm2) 
     there are  4 classes
     the character table:

       E     C2    s_v   s_v' 
A_1    1.00  1.00  1.00  1.00
A_2    1.00  1.00 -1.00 -1.00
B_1    1.00 -1.00  1.00 -1.00
B_2    1.00 -1.00 -1.00  1.00

     the symmetry operations in each class and the name of the first element:

     E        1
                                                                 
     C2       2
                                                                 
     s_v      3
                                                                 
     s_v'     4
                                                                 

     Band symmetry, C_2v (mm2)  point group:

     e(  1 -  1) =    -16.18973  eV     1   --> A_1  D_1  S_1  
     e(  2 -  2) =    -12.22303  eV     1   --> A_1  D_1  S_1  
     e(  3 -  3) =    -12.00558  eV     1   --> B_1  D_3  S_3  
     e(  4 -  4) =    -11.86320  eV     1   --> A_1  D_1  S_1  
     e(  5 -  5) =     -9.76675  eV     1   --> A_1  D_1  S_1  
     e(  6 -  6) =     -9.75146  eV     1   --> B_1  D_3  S_3  
     e(  7 -  7) =     -7.61820  eV     1   --> A_1  D_1  S_1  
     e(  8 -  8) =     -7.05529  eV     1   --> B_2  D_4  S_4  
     e(  9 -  9) =     -2.19497  eV     1   --> B_1  D_3  S_3  
     e( 10 - 10) =     -2.18712  eV     1   --> A_1  D_1  S_1  
     e( 11 - 11) =     -0.79112  eV     1   --> B_2  D_4  S_4  
     e( 12 - 12) =     -0.20885  eV     1   --> A_2  D_2  S_2  
     e( 13 - 13) =     -0.08644  eV     1   --> B_2  D_4  S_4  
     e( 14 - 14) =      0.16040  eV     1   --> A_1  D_1  S_1  
     e( 15 - 15) =      0.16824  eV     1   --> B_1  D_3  S_3  
     e( 16 - 16) =      0.53093  eV     1   --> B_2  D_4  S_4  

 **************************************************************************

 **************************************************************************

                    xk=(   0.00000,   0.06415,   0.25000  )

     Band symmetry, C_2v (mm2)  point group:

     e(  1 -  1) =    -16.17934  eV     1   --> A_1  D_1  S_1  
     e(  2 -  2) =    -12.39815  eV     1   --> A_1  D_1  S_1  
     e(  3 -  3) =    -12.01579  eV     1   --> B_1  D_3  S_3  
     e(  4 -  4) =    -11.69489  eV     1   --> A_1  D_1  S_1  
     e(  5 -  5) =     -9.78361  eV     1   --> A_1  D_1  S_1  
     e(  6 -  6) =     -9.72429  eV     1   --> B_1  D_3  S_3  
     e(  7 -  7) =     -7.57016  eV     1   --> A_1  D_1  S_1  
     e(  8 -  8) =     -7.03937  eV     1   --> B_2  D_4  S_4  
     e(  9 -  9) =     -2.32847  eV     1   --> B_1  D_3  S_3  
     e( 10 - 10) =     -2.29986  eV     1   --> A_1  D_1  S_1  
     e( 11 - 11) =     -1.04144  eV     1   --> B_2  D_4  S_4  
     e( 12 - 12) =     -0.32437  eV     1   --> A_2  D_2  S_2  
     e( 13 - 13) =     -0.00295  eV     1   --> B_2  D_4  S_4  
     e( 14 - 14) =      0.28289  eV     1   --> A_1  D_1  S_1  
     e( 15 - 15) =      0.31127  eV     1   --> B_1  D_3  S_3  
     e( 16 - 16) =      0.68247  eV     1   --> B_2  D_4  S_4  

 **************************************************************************

 **************************************************************************

                    xk=(   0.00000,   0.09623,   0.25000  )

     Band symmetry, C_2v (mm2)  point group:

     e(  1 -  1) =    -16.16207  eV     1   --> A_1  D_1  S_1  
     e(  2 -  2) =    -12.57463  eV     1   --> A_1  D_1  S_1  
     e(  3 -  3) =    -12.03207  eV     1   --> B_1  D_3  S_3  
     e(  4 -  4) =    -11.53143  eV     1   --> A_1  D_1  S_1  
     e(  5 -  5) =     -9.80656  eV     1   --> A_1  D_1  S_1  
     e(  6 -  6) =     -9.67984  eV     1   --> B_1  D_3  S_3  
     e(  7 -  7) =     -7.49452  eV     1   --> A_1  D_1  S_1  
     e(  8 -  8) =     -7.01286  eV     1   --> B_2  D_4  S_4  
     e(  9 -  9) =     -2.52201  eV     1   --> B_1  D_3  S_3  
     e( 10 - 10) =     -2.46466  eV     1   --> A_1  D_1  S_1  
     e( 11 - 11) =     -1.32514  eV     1   --> B_2  D_4  S_4  
     e( 12 - 12) =     -0.46207  eV     1   --> A_2  D_2  S_2  
     e( 13 - 13) =      0.01884  eV     1   --> B_2  D_4  S_4  
     e( 14 - 14) =      0.46435  eV     1   --> A_1  D_1  S_1  
     e( 15 - 15) =      0.52056  eV     1   --> B_1  D_3  S_3  
     e( 16 - 16) =      0.88042  eV     1   --> A_2  D_2  S_2  

 **************************************************************************

 **************************************************************************

                    xk=(   0.00000,   0.12830,   0.25000  )

     Band symmetry, C_2v (mm2)  point group:

     e(  1 -  1) =    -16.13795  eV     1   --> A_1  D_1  S_1  
     e(  2 -  2) =    -12.75057  eV     1   --> A_1  D_1  S_1  
     e(  3 -  3) =    -12.05350  eV     1   --> B_1  D_3  S_3  
     e(  4 -  4) =    -11.37748  eV     1   --> A_1  D_1  S_1  
     e(  5 -  5) =     -9.82870  eV     1   --> A_1  D_1  S_1  
     e(  6 -  6) =     -9.61930  eV     1   --> B_1  D_3  S_3  
     e(  7 -  7) =     -7.39692  eV     1   --> A_1  D_1  S_1  
     e(  8 -  8) =     -6.97582  eV     1   --> B_2  D_4  S_4  
     e(  9 -  9) =     -2.75239  eV     1   --> B_1  D_3  S_3  
     e( 10 - 10) =     -2.66124  eV     1   --> A_1  D_1  S_1  
     e( 11 - 11) =     -1.61816  eV     1   --> B_2  D_4  S_4  
     e( 12 - 12) =     -0.60312  eV     1   --> A_2  D_2  S_2  
     e( 13 - 13) =     -0.00112  eV     1   --> B_2  D_4  S_4  
     e( 14 - 14) =      0.68521  eV     1   --> A_1  D_1  S_1  
     e( 15 - 15) =      0.77270  eV     1   --> B_1  D_3  S_3  
     e( 16 - 16) =      1.09395  eV     1   --> A_2  D_2  S_2  

 **************************************************************************

 **************************************************************************

                    xk=(   0.00000,   0.16038,   0.25000  )

     Band symmetry, C_2v (mm2)  point group:

     e(  1 -  1) =    -16.10709  eV     1   --> A_1  D_1  S_1  
     e(  2 -  2) =    -12.92510  eV     1   --> A_1  D_1  S_1  
     e(  3 -  3) =    -12.07891  eV     1   --> B_1  D_3  S_3  
     e(  4 -  4) =    -11.23816  eV     1   --> A_1  D_1  S_1  
     e(  5 -  5) =     -9.84149  eV     1   --> A_1  D_1  S_1  
     e(  6 -  6) =     -9.54409  eV     1   --> B_1  D_3  S_3  
     e(  7 -  7) =     -7.28388  eV     1   --> A_1  D_1  S_1  
     e(  8 -  8) =     -6.92832  eV     1   --> B_2  D_4  S_4  
     e(  9 -  9) =     -3.00334  eV     1   --> B_1  D_3  S_3  
     e( 10 - 10) =     -2.87375  eV     1   --> A_1  D_1  S_1  
     e( 11 - 11) =     -1.91229  eV     1   --> B_2  D_4  S_4  
     e( 12 - 12) =     -0.74025  eV     1   --> A_2  D_2  S_2  
     e( 13 - 13) =     -0.04300  eV     1   --> B_2  D_4  S_4  
     e( 14 - 14) =      0.93071  eV     1   --> A_1  D_1  S_1  
     e( 15 - 15) =      1.05117  eV     1   --> B_1  D_3  S_3  
     e( 16 - 16) =      1.32413  eV     1   --> A_2  D_2  S_2  

 **************************************************************************

 **************************************************************************

                    xk=(   0.00000,   0.19245,   0.25000  )

     Band symmetry, C_2v (mm2)  point group:

     e(  1 -  1) =    -16.06960  eV     1   --> A_1  D_1  S_1  
     e(  2 -  2) =    -13.09753  eV     1   --> A_1  D_1  S_1  
     e(  3 -  3) =    -12.10711  eV     1   --> B_1  D_3  S_3  
     e(  4 -  4) =    -11.11971  eV     1   --> A_1  D_1  S_1  
     e(  5 -  5) =     -9.83550  eV     1   --> A_1  D_1  S_1  
     e(  6 -  6) =     -9.45587  eV     1   --> B_1  D_3  S_3  
     e(  7 -  7) =     -7.16236  eV     1   --> A_1  D_1  S_1  
     e(  8 -  8) =     -6.87047  eV     1   --> B_2  D_4  S_4  
     e(  9 -  9) =     -3.26434  eV     1   --> B_1  D_3  S_3  
     e( 10 - 10) =     -3.09052  eV     1   --> A_1  D_1  S_1  
     e( 11 - 11) =     -2.20370  eV     1   --> B_2  D_4  S_4  
     e( 12 - 12) =     -0.87032  eV     1   --> A_2  D_2  S_2  
     e( 13 - 13) =     -0.09648  eV     1   --> B_2  D_4  S_4  
     e( 14 - 14) =      1.19074  eV     1   --> A_1  D_1  S_1  
     e( 15 - 15) =      1.34513  eV     1   --> B_1  D_3  S_3  
     e( 16 - 16) =      1.56767  eV     1   --> A_2  D_2  S_2  

 **************************************************************************

 **************************************************************************

                    xk=(   0.00000,   0.22453,   0.25000  )

     Band symmetry, C_2v (mm2)  point group:

     e(  1 -  1) =    -16.02563  eV     1   --> A_1  D_1  S_1  
     e(  2 -  2) =    -13.26722  eV     1   --> A_1  D_1  S_1  
     e(  3 -  3) =    -12.13690  eV     1   --> B_1  D_3  S_3  
     e(  4 -  4) =    -11.02830  eV     1   --> A_1  D_1  S_1  
     e(  5 -  5) =     -9.80201  eV     1   --> A_1  D_1  S_1  
     e(  6 -  6) =     -9.35640  eV     1   --> B_1  D_3  S_3  
     e(  7 -  7) =     -7.03967  eV     1   --> A_1  D_1  S_1  
     e(  8 -  8) =     -6.80244  eV     1   --> B_2  D_4  S_4  
     e(  9 -  9) =     -3.52854  eV     1   --> B_1  D_3  S_3  
     e( 10 - 10) =     -3.30240  eV     1   --> A_1  D_1  S_1  
     e( 11 - 11) =     -2.49014  eV     1   --> B_2  D_4  S_4  
     e( 12 - 12) =     -0.99179  eV     1   --> A_2  D_2  S_2  
     e( 13 - 13) =     -0.15577  eV     1   --> B_2  D_4  S_4  
     e( 14 - 14) =      1.45835  eV     1   --> A_1  D_1  S_1  
     e( 15 - 15) =      1.64735  eV     1   --> B_1  D_3  S_3  
     e( 16 - 16) =      1.82291  eV     1   --> A_2  D_2  S_2  

 **************************************************************************

 **************************************************************************

                    xk=(   0.00000,   0.25660,   0.25000  )

     Band symmetry, C_2v (mm2)  point group:

     e(  1 -  1) =    -15.97540  eV     1   --> A_1  D_1  S_1  
     e(  2 -  2) =    -13.43356  eV     1   --> A_1  D_1  S_1  
     e(  3 -  3) =    -12.16721  eV     1   --> B_1  D_3  S_3  
     e(  4 -  4) =    -10.96731  eV     1   --> A_1  D_1  S_1  
     e(  5 -  5) =     -9.73584  eV     1   --> A_1  D_1  S_1  
     e(  6 -  6) =     -9.24755  eV     1   --> B_1  D_3  S_3  
     e(  7 -  7) =     -6.92357  eV     1   --> A_1  D_1  S_1  
     e(  8 -  8) =     -6.72443  eV     1   --> B_2  D_4  S_4  
     e(  9 -  9) =     -3.79110  eV     1   --> B_1  D_3  S_3  
     e( 10 - 10) =     -3.50150  eV     1   --> A_1  D_1  S_1  
     e( 11 - 11) =     -2.77008  eV     1   --> B_2  D_4  S_4  
     e( 12 - 12) =     -1.10382  eV     1   --> A_2  D_2  S_2  
     e( 13 - 13) =     -0.21711  eV     1   --> B_2  D_4  S_4  
     e( 14 - 14) =      1.72852  eV     1   --> A_1  D_1  S_1  
     e( 15 - 15) =      1.95267  eV     1   --> B_1  D_3  S_3  
     e( 16 - 16) =      2.08879  eV     1   --> A_2  D_2  S_2  

 **************************************************************************

 **************************************************************************

                    xk=(   0.00000,   0.28868,   0.25000  )

     Band symmetry, C_2v (mm2)  point group:

     e(  1 -  1) =    -15.91921  eV     1   --> A_1  D_1  S_1  
     e(  2 -  2) =    -13.59589  eV     1   --> A_1  D_1  S_1  
     e(  3 -  3) =    -12.19708  eV     1   --> B_1  D_3  S_3  
     e(  4 -  4) =    -10.93502  eV     1   --> A_1  D_1  S_1  
     e(  5 -  5) =     -9.63760  eV     1   --> A_1  D_1  S_1  
     e(  6 -  6) =     -9.13133  eV     1   --> B_1  D_3  S_3  
     e(  7 -  7) =     -6.82225  eV     1   --> A_1  D_1  S_1  
     e(  8 -  8) =     -6.63674  eV     1   --> B_2  D_4  S_4  
     e(  9 -  9) =     -4.04832  eV     1   --> B_1  D_3  S_3  
     e( 10 - 10) =     -3.68041  eV     1   --> A_1  D_1  S_1  
     e( 11 - 11) =     -3.04230  eV     1   --> B_2  D_4  S_4  
     e( 12 - 12) =     -1.20590  eV     1   --> A_2  D_2  S_2  
     e( 13 - 13) =     -0.27780  eV     1   --> B_2  D_4  S_4  
     e( 14 - 14) =      1.99731  eV     1   --> A_1  D_1  S_1  
     e( 15 - 15) =      2.25702  eV     1   --> B_1  D_3  S_3  
     e( 16 - 16) =      2.36461  eV     1   --> A_2  D_2  S_2  

 **************************************************************************

 **************************************************************************

                    xk=(   0.00000,   0.32075,   0.25000  )

     Band symmetry, C_2v (mm2)  point group:

     e(  1 -  1) =    -15.85746  eV     1   --> A_1  D_1  S_1  
     e(  2 -  2) =    -13.75349  eV     1   --> A_1  D_1  S_1  
     e(  3 -  3) =    -12.22567  eV     1   --> B_1  D_3  S_3  
     e(  4 -  4) =    -10.92534  eV     1   --> A_1  D_1  S_1  
     e(  5 -  5) =     -9.51305  eV     1   --> A_1  D_1  S_1  
     e(  6 -  6) =     -9.00995  eV     1   --> B_1  D_3  S_3  
     e(  7 -  7) =     -6.74398  eV     1   --> A_1  D_1  S_1  
     e(  8 -  8) =     -6.53981  eV     1   --> B_2  D_4  S_4  
     e(  9 -  9) =     -4.29698  eV     1   --> B_1  D_3  S_3  
     e( 10 - 10) =     -3.83215  eV     1   --> A_1  D_1  S_1  
     e( 11 - 11) =     -3.30568  eV     1   --> B_2  D_4  S_4  
     e( 12 - 12) =     -1.29772  eV     1   --> A_2  D_2  S_2  
     e( 13 - 13) =     -0.33585  eV     1   --> B_2  D_4  S_4  
     e( 14 - 14) =      2.26122  eV     1   --> A_1  D_1  S_1  
     e( 15 - 15) =      2.55690  eV     1   --> B_1  D_3  S_3  
     e( 16 - 16) =      2.64977  eV     1   --> A_2  D_2  S_2  

 **************************************************************************

 **************************************************************************

                    xk=(   0.00000,   0.35283,   0.25000  )

     Band symmetry, C_2v (mm2)  point group:

     e(  1 -  1) =    -15.79076  eV     1   --> A_1  D_1  S_1  
     e(  2 -  2) =    -13.90546  eV     1   --> A_1  D_1  S_1  
     e(  3 -  3) =    -12.25230  eV     1   --> B_1  D_3  S_3  
     e(  4 -  4) =    -10.93076  eV     1   --> A_1  D_1  S_1  
     e(  5 -  5) =     -9.37013  eV     1   --> A_1  D_1  S_1  
     e(  6 -  6) =     -8.88598  eV     1   --> B_1  D_3  S_3  
     e(  7 -  7) =     -6.69607  eV     1   --> A_1  D_1  S_1  
     e(  8 -  8) =     -6.43428  eV     1   --> B_2  D_4  S_4  
     e(  9 -  9) =     -4.53394  eV     1   --> B_1  D_3  S_3  
     e( 10 - 10) =     -3.95097  eV     1   --> A_1  D_1  S_1  
     e( 11 - 11) =     -3.55907  eV     1   --> B_2  D_4  S_4  
     e( 12 - 12) =     -1.37905  eV     1   --> A_2  D_2  S_2  
     e( 13 - 13) =     -0.38975  eV     1   --> B_2  D_4  S_4  
     e( 14 - 14) =      2.51666  eV     1   --> A_1  D_1  S_1  
     e( 15 - 15) =      2.84890  eV     1   --> B_1  D_3  S_3  
     e( 16 - 16) =      2.94375  eV     1   --> A_2  D_2  S_2  

 **************************************************************************

 **************************************************************************

                    xk=(   0.00000,   0.38490,   0.25000  )

     Band symmetry, C_2v (mm2)  point group:

     e(  1 -  1) =    -15.71998  eV     1   --> A_1  D_1  S_1  
     e(  2 -  2) =    -14.05069  eV     1   --> A_1  D_1  S_1  
     e(  3 -  3) =    -12.27638  eV     1   --> B_1  D_3  S_3  
     e(  4 -  4) =    -10.94469  eV     1   --> A_1  D_1  S_1  
     e(  5 -  5) =     -9.21680  eV     1   --> A_1  D_1  S_1  
     e(  6 -  6) =     -8.76246  eV     1   --> B_1  D_3  S_3  
     e(  7 -  7) =     -6.68295  eV     1   --> A_1  D_1  S_1  
     e(  8 -  8) =     -6.32112  eV     1   --> B_2  D_4  S_4  
     e(  9 -  9) =     -4.75577  eV     1   --> B_1  D_3  S_3  
     e( 10 - 10) =     -4.03386  eV     1   --> A_1  D_1  S_1  
     e( 11 - 11) =     -3.80105  eV     1   --> B_2  D_4  S_4  
     e( 12 - 12) =     -1.44976  eV     1   --> A_2  D_2  S_2  
     e( 13 - 13) =     -0.43833  eV     1   --> B_2  D_4  S_4  
     e( 14 - 14) =      2.75928  eV     1   --> A_1  D_1  S_1  
     e( 15 - 15) =      3.12937  eV     1   --> B_1  D_3  S_3  
     e( 16 - 16) =      3.24603  eV     1   --> A_2  D_2  S_2  

 **************************************************************************

 **************************************************************************

                    xk=(   0.00000,   0.41698,   0.25000  )

     Band symmetry, C_2v (mm2)  point group:

     e(  1 -  1) =    -15.64645  eV     1   --> A_1  D_1  S_1  
     e(  2 -  2) =    -14.18758  eV     1   --> A_1  D_1  S_1  
     e(  3 -  3) =    -12.29746  eV     1   --> B_1  D_3  S_3  
     e(  4 -  4) =    -10.96221  eV     1   --> A_1  D_1  S_1  
     e(  5 -  5) =     -9.06051  eV     1   --> A_1  D_1  S_1  
     e(  6 -  6) =     -8.64314  eV     1   --> B_1  D_3  S_3  
     e(  7 -  7) =     -6.70420  eV     1   --> A_1  D_1  S_1  
     e(  8 -  8) =     -6.20195  eV     1   --> B_2  D_4  S_4  
     e(  9 -  9) =     -4.95851  eV     1   --> B_1  D_3  S_3  
     e( 10 - 10) =     -4.08216  eV     1   --> A_1  D_1  S_1  
     e( 11 - 11) =     -4.02972  eV     1   --> B_2  D_4  S_4  
     e( 12 - 12) =     -1.50972  eV     1   --> A_2  D_2  S_2  
     e( 13 - 13) =     -0.48069  eV     1   --> B_2  D_4  S_4  
     e( 14 - 14) =      2.98256  eV     1   --> A_1  D_1  S_1  
     e( 15 - 15) =      3.39391  eV     1   --> B_1  D_3  S_3  
     e( 16 - 16) =      3.55606  eV     1   --> A_2  D_2  S_2  

 **************************************************************************

 **************************************************************************

                    xk=(   0.00000,   0.44905,   0.25000  )

     Band symmetry, C_2v (mm2)  point group:

     e(  1 -  1) =    -15.57236  eV     1   --> A_1  D_1  S_1  
     e(  2 -  2) =    -14.31380  eV     1   --> A_1  D_1  S_1  
     e(  3 -  3) =    -12.31516  eV     1   --> B_1  D_3  S_3  
     e(  4 -  4) =    -10.97991  eV     1   --> A_1  D_1  S_1  
     e(  5 -  5) =     -8.90889  eV     1   --> A_1  D_1  S_1  
     e(  6 -  6) =     -8.53263  eV     1   --> B_1  D_3  S_3  
     e(  7 -  7) =     -6.75353  eV     1   --> A_1  D_1  S_1  
     e(  8 -  8) =     -6.07946  eV     1   --> B_2  D_4  S_4  
     e(  9 -  9) =     -5.13740  eV     1   --> B_1  D_3  S_3  
     e( 10 - 10) =     -4.24210  eV     1   --> B_2  D_4  S_4  
     e( 11 - 11) =     -4.10194  eV     1   --> A_1  D_1  S_1  
     e( 12 - 12) =     -1.55887  eV     1   --> A_2  D_2  S_2  
     e( 13 - 13) =     -0.51616  eV     1   --> B_2  D_4  S_4  
     e( 14 - 14) =      3.17396  eV     1   --> A_1  D_1  S_1  
     e( 15 - 15) =      3.63676  eV     1   --> B_1  D_3  S_3  
     e( 16 - 16) =      3.81127  eV     1   --> A_1  D_1  S_1  

 **************************************************************************

 **************************************************************************

                    xk=(   0.00000,   0.48113,   0.25000  )

     Band symmetry, C_2v (mm2)  point group:

     e(  1 -  1) =    -15.50125  eV     1   --> A_1  D_1  S_1  
     e(  2 -  2) =    -14.42561  eV     1   --> A_1  D_1  S_1  
     e(  3 -  3) =    -12.32921  eV     1   --> B_1  D_3  S_3  
     e(  4 -  4) =    -10.99553  eV     1   --> A_1  D_1  S_1  
     e(  5 -  5) =     -8.77072  eV     1   --> A_1  D_1  S_1  
     e(  6 -  6) =     -8.43651  eV     1   --> B_1  D_3  S_3  
     e(  7 -  7) =     -6.81928  eV     1   --> A_1  D_1  S_1  
     e(  8 -  8) =     -5.95860  eV     1   --> B_2  D_4  S_4  
     e(  9 -  9) =     -5.28677  eV     1   --> B_1  D_3  S_3  
     e( 10 - 10) =     -4.43307  eV     1   --> B_2  D_4  S_4  
     e( 11 - 11) =     -4.10252  eV     1   --> A_1  D_1  S_1  
     e( 12 - 12) =     -1.59715  eV     1   --> A_2  D_2  S_2  
     e( 13 - 13) =     -0.54422  eV     1   --> B_2  D_4  S_4  
     e( 14 - 14) =      3.30247  eV     1   --> A_1  D_1  S_1  
     e( 15 - 15) =      3.69909  eV     1   --> A_1  D_1  S_1  
     e( 16 - 16) =      3.84973  eV     1   --> B_1  D_3  S_3  

 **************************************************************************

 **************************************************************************

                    xk=(   0.00000,   0.51320,   0.25000  )

     Band symmetry, C_2v (mm2)  point group:

     e(  1 -  1) =    -15.43901  eV     1   --> A_1  D_1  S_1  
     e(  2 -  2) =    -14.51701  eV     1   --> A_1  D_1  S_1  
     e(  3 -  3) =    -12.33939  eV     1   --> B_1  D_3  S_3  
     e(  4 -  4) =    -11.00757  eV     1   --> A_1  D_1  S_1  
     e(  5 -  5) =     -8.65694  eV     1   --> A_1  D_1  S_1  
     e(  6 -  6) =     -8.36109  eV     1   --> B_1  D_3  S_3  
     e(  7 -  7) =     -6.88587  eV     1   --> A_1  D_1  S_1  
     e(  8 -  8) =     -5.84861  eV     1   --> B_2  D_4  S_4  
     e(  9 -  9) =     -5.40028  eV     1   --> B_1  D_3  S_3  
     e( 10 - 10) =     -4.59325  eV     1   --> B_2  D_4  S_4  
     e( 11 - 11) =     -4.09402  eV     1   --> A_1  D_1  S_1  
     e( 12 - 12) =     -1.62452  eV     1   --> A_2  D_2  S_2  
     e( 13 - 13) =     -0.56452  eV     1   --> B_2  D_4  S_4  
     e( 14 - 14) =      3.32431  eV     1   --> A_1  D_1  S_1  
     e( 15 - 15) =      3.69418  eV     1   --> A_1  D_1  S_1  
     e( 16 - 16) =      4.02099  eV     1   --> B_1  D_3  S_3  

 **************************************************************************

 **************************************************************************

                    xk=(   0.00000,   0.54528,   0.25000  )

     Band symmetry, C_2v (mm2)  point group:

     e(  1 -  1) =    -15.39456  eV     1   --> A_1  D_1  S_1  
     e(  2 -  2) =    -14.57899  eV     1   --> A_1  D_1  S_1  
     e(  3 -  3) =    -12.34556  eV     1   --> B_1  D_3  S_3  
     e(  4 -  4) =    -11.01513  eV     1   --> A_1  D_1  S_1  
     e(  5 -  5) =     -8.58046  eV     1   --> A_1  D_1  S_1  
     e(  6 -  6) =     -8.31259  eV     1   --> B_1  D_3  S_3  
     e(  7 -  7) =     -6.93599  eV     1   --> A_1  D_1  S_1  
     e(  8 -  8) =     -5.76614  eV     1   --> B_2  D_4  S_4  
     e(  9 -  9) =     -5.47163  eV     1   --> B_1  D_3  S_3  
     e( 10 - 10) =     -4.70586  eV     1   --> B_2  D_4  S_4  
     e( 11 - 11) =     -4.08511  eV     1   --> A_1  D_1  S_1  
     e( 12 - 12) =     -1.64095  eV     1   --> A_2  D_2  S_2  
     e( 13 - 13) =     -0.57679  eV     1   --> B_2  D_4  S_4  
     e( 14 - 14) =      3.29159  eV     1   --> A_1  D_1  S_1  
     e( 15 - 15) =      3.74345  eV     1   --> A_1  D_1  S_1  
     e( 16 - 16) =      4.13478  eV     1   --> B_1  D_3  S_3  

 **************************************************************************

 **************************************************************************

                    xk=(   0.00000,   0.57735,   0.25000  )

     point group D_2h (mmm) 
     there are  8 classes
     the character table:

       E     C2    C2'   C2''  i     s_v   s_v'  s_v''
A_g    1.00  1.00  1.00  1.00  1.00  1.00  1.00  1.00
B_1g   1.00  1.00 -1.00 -1.00  1.00  1.00 -1.00 -1.00
B_2g   1.00 -1.00  1.00 -1.00  1.00 -1.00  1.00 -1.00
B_3g   1.00 -1.00 -1.00  1.00  1.00 -1.00 -1.00  1.00
A_u    1.00  1.00  1.00  1.00 -1.00 -1.00 -1.00 -1.00
B_1u   1.00  1.00 -1.00 -1.00 -1.00 -1.00  1.00  1.00
B_2u   1.00 -1.00  1.00 -1.00 -1.00  1.00 -1.00  1.00
B_3u   1.00 -1.00 -1.00  1.00 -1.00  1.00  1.00 -1.00

     the symmetry operations in each class and the name of the first element:

     E        1
                                                                 
     C2       2
                                                                 
     C2'      4
                                                                 
     C2''     3
                                                                 
     i        5
                                                                 
     s_v      6
                                                                 
     s_v'     8
                                                                 
     s_v''    7
                                                                 

     Band symmetry, D_2h (mmm)  point group:

     e(  1 -  1) =    -15.37809  eV     1   --> B_3u           
     e(  2 -  2) =    -14.60131  eV     1   --> A_g            
     e(  3 -  3) =    -12.34762  eV     1   --> B_2u           
     e(  4 -  4) =    -11.01770  eV     1   --> A_g            
     e(  5 -  5) =     -8.55326  eV     1   --> B_3u           
     e(  6 -  6) =     -8.29581  eV     1   --> B_1g           
     e(  7 -  7) =     -6.95474  eV     1   --> A_g            
     e(  8 -  8) =     -5.73435  eV     1   --> B_2g           
     e(  9 -  9) =     -5.49602  eV     1   --> B_2u           
     e( 10 - 10) =     -4.74770  eV     1   --> B_1u           
     e( 11 - 11) =     -4.08148  eV     1   --> B_3u           
     e( 12 - 12) =     -1.64643  eV     1   --> B_3g           
     e( 13 - 13) =     -0.58089  eV     1   --> B_1u           
     e( 14 - 14) =      3.27506  eV     1   --> A_g            
     e( 15 - 15) =      3.76692  eV     1   --> B_3u           
     e( 16 - 16) =      4.17512  eV     1   --> B_1g           

 **************************************************************************

 **************************************************************************

                    xk=(   0.03333,   0.57735,   0.25000  )

     point group C_2v (mm2) 
     there are  4 classes
     the character table:

       E     C2    s_v   s_v' 
A_1    1.00  1.00  1.00  1.00
A_2    1.00  1.00 -1.00 -1.00
B_1    1.00 -1.00  1.00 -1.00
B_2    1.00 -1.00 -1.00  1.00

     the symmetry operations in each class and the name of the first element:

     E        1
                                                                 
     C2       2
                                                                 
     s_v      4
                                                                 
     s_v'     3
                                                                 

     Band symmetry, C_2v (mm2)  point group:

     e(  1 -  1) =    -15.37397  eV     1   --> B_2  D_4  S_4  
     e(  2 -  2) =    -14.60388  eV     1   --> A_1  D_1  S_1  
     e(  3 -  3) =    -12.37126  eV     1   --> A_1  D_1  S_1  
     e(  4 -  4) =    -10.98235  eV     1   --> A_1  D_1  S_1  
     e(  5 -  5) =     -8.57993  eV     1   --> B_2  D_4  S_4  
     e(  6 -  6) =     -8.27341  eV     1   --> B_2  D_4  S_4  
     e(  7 -  7) =     -6.98594  eV     1   --> A_1  D_1  S_1  
     e(  8 -  8) =     -5.72816  eV     1   --> A_2  D_2  S_2  
     e(  9 -  9) =     -5.46530  eV     1   --> A_1  D_1  S_1  
     e( 10 - 10) =     -4.74765  eV     1   --> B_1  D_3  S_3  
     e( 11 - 11) =     -4.08582  eV     1   --> B_2  D_4  S_4  
     e( 12 - 12) =     -1.72982  eV     1   --> B_1  D_3  S_3  
     e( 13 - 13) =     -0.48259  eV     1   --> B_1  D_3  S_3  
     e( 14 - 14) =      3.27312  eV     1   --> A_1  D_1  S_1  
     e( 15 - 15) =      3.64314  eV     1   --> B_2  D_4  S_4  
     e( 16 - 16) =      4.29765  eV     1   --> B_2  D_4  S_4  

 **************************************************************************

 **************************************************************************

                    xk=(   0.06667,   0.57735,   0.25000  )

     Band symmetry, C_2v (mm2)  point group:

     e(  1 -  1) =    -15.36160  eV     1   --> B_2  D_4  S_4  
     e(  2 -  2) =    -14.61181  eV     1   --> A_1  D_1  S_1  
     e(  3 -  3) =    -12.43447  eV     1   --> A_1  D_1  S_1  
     e(  4 -  4) =    -10.88392  eV     1   --> A_1  D_1  S_1  
     e(  5 -  5) =     -8.64328  eV     1   --> B_2  D_4  S_4  
     e(  6 -  6) =     -8.22284  eV     1   --> B_2  D_4  S_4  
     e(  7 -  7) =     -7.07160  eV     1   --> A_1  D_1  S_1  
     e(  8 -  8) =     -5.70959  eV     1   --> A_2  D_2  S_2  
     e(  9 -  9) =     -5.38126  eV     1   --> A_1  D_1  S_1  
     e( 10 - 10) =     -4.74797  eV     1   --> B_1  D_3  S_3  
     e( 11 - 11) =     -4.09891  eV     1   --> B_2  D_4  S_4  
     e( 12 - 12) =     -1.92113  eV     1   --> B_1  D_3  S_3  
     e( 13 - 13) =     -0.24619  eV     1   --> B_1  D_3  S_3  
     e( 14 - 14) =      3.26699  eV     1   --> A_1  D_1  S_1  
     e( 15 - 15) =      3.43951  eV     1   --> B_2  D_4  S_4  
     e( 16 - 16) =      4.40017  eV     1   --> B_2  D_4  S_4  

 **************************************************************************

 **************************************************************************

                    xk=(   0.10000,   0.57735,   0.25000  )

     Band symmetry, C_2v (mm2)  point group:

     e(  1 -  1) =    -15.34100  eV     1   --> B_2  D_4  S_4  
     e(  2 -  2) =    -14.62576  eV     1   --> A_1  D_1  S_1  
     e(  3 -  3) =    -12.52089  eV     1   --> A_1  D_1  S_1  
     e(  4 -  4) =    -10.73872  eV     1   --> A_1  D_1  S_1  
     e(  5 -  5) =     -8.72392  eV     1   --> B_2  D_4  S_4  
     e(  6 -  6) =     -8.16357  eV     1   --> B_2  D_4  S_4  
     e(  7 -  7) =     -7.19455  eV     1   --> A_1  D_1  S_1  
     e(  8 -  8) =     -5.67864  eV     1   --> A_2  D_2  S_2  
     e(  9 -  9) =     -5.26154  eV     1   --> A_1  D_1  S_1  
     e( 10 - 10) =     -4.75010  eV     1   --> B_1  D_3  S_3  
     e( 11 - 11) =     -4.12089  eV     1   --> B_2  D_4  S_4  
     e( 12 - 12) =     -2.14683  eV     1   --> B_1  D_3  S_3  
     e( 13 - 13) =      0.05572  eV     1   --> B_1  D_3  S_3  
     e( 14 - 14) =      3.24676  eV     1   --> B_2  D_4  S_4  
     e( 15 - 15) =      3.25569  eV     1   --> A_1  D_1  S_1  
     e( 16 - 16) =      4.23943  eV     1   --> A_2  D_2  S_2  

 **************************************************************************

 **************************************************************************

                    xk=(   0.13333,   0.57735,   0.25000  )

     Band symmetry, C_2v (mm2)  point group:

     e(  1 -  1) =    -15.31219  eV     1   --> B_2  D_4  S_4  
     e(  2 -  2) =    -14.64675  eV     1   --> A_1  D_1  S_1  
     e(  3 -  3) =    -12.61507  eV     1   --> A_1  D_1  S_1  
     e(  4 -  4) =    -10.56225  eV     1   --> A_1  D_1  S_1  
     e(  5 -  5) =     -8.81377  eV     1   --> B_2  D_4  S_4  
     e(  6 -  6) =     -8.10384  eV     1   --> B_2  D_4  S_4  
     e(  7 -  7) =     -7.33825  eV     1   --> A_1  D_1  S_1  
     e(  8 -  8) =     -5.63531  eV     1   --> A_2  D_2  S_2  
     e(  9 -  9) =     -5.12333  eV     1   --> A_1  D_1  S_1  
     e( 10 - 10) =     -4.75658  eV     1   --> B_1  D_3  S_3  
     e( 11 - 11) =     -4.15182  eV     1   --> B_2  D_4  S_4  
     e( 12 - 12) =     -2.37238  eV     1   --> B_1  D_3  S_3  
     e( 13 - 13) =      0.39026  eV     1   --> B_1  D_3  S_3  
     e( 14 - 14) =      3.08212  eV     1   --> B_2  D_4  S_4  
     e( 15 - 15) =      3.23738  eV     1   --> A_1  D_1  S_1  
     e( 16 - 16) =      3.96310  eV     1   --> A_2  D_2  S_2  

 **************************************************************************

 **************************************************************************

                    xk=(   0.16667,   0.57735,   0.25000  )

     Band symmetry, C_2v (mm2)  point group:

     e(  1 -  1) =    -15.27520  eV     1   --> B_2  D_4  S_4  
     e(  2 -  2) =    -14.67597  eV     1   --> A_1  D_1  S_1  
     e(  3 -  3) =    -12.70586  eV     1   --> A_1  D_1  S_1  
     e(  4 -  4) =    -10.36623  eV     1   --> A_1  D_1  S_1  
     e(  5 -  5) =     -8.90961  eV     1   --> B_2  D_4  S_4  
     e(  6 -  6) =     -8.04716  eV     1   --> B_2  D_4  S_4  
     e(  7 -  7) =     -7.49009  eV     1   --> A_1  D_1  S_1  
     e(  8 -  8) =     -5.57963  eV     1   --> A_2  D_2  S_2  
     e(  9 -  9) =     -4.97985  eV     1   --> A_1  D_1  S_1  
     e( 10 - 10) =     -4.77110  eV     1   --> B_1  D_3  S_3  
     e( 11 - 11) =     -4.19144  eV     1   --> B_2  D_4  S_4  
     e( 12 - 12) =     -2.58139  eV     1   --> B_1  D_3  S_3  
     e( 13 - 13) =      0.74325  eV     1   --> B_1  D_3  S_3  
     e( 14 - 14) =      2.95170  eV     1   --> B_2  D_4  S_4  
     e( 15 - 15) =      3.20921  eV     1   --> A_1  D_1  S_1  
     e( 16 - 16) =      3.69128  eV     1   --> A_2  D_2  S_2  

 **************************************************************************

 **************************************************************************

                    xk=(   0.20000,   0.57735,   0.25000  )

     Band symmetry, C_2v (mm2)  point group:

     e(  1 -  1) =    -15.23005  eV     1   --> B_2  D_4  S_4  
     e(  2 -  2) =    -14.71457  eV     1   --> A_1  D_1  S_1  
     e(  3 -  3) =    -12.78586  eV     1   --> A_1  D_1  S_1  
     e(  4 -  4) =    -10.15979  eV     1   --> A_1  D_1  S_1  
     e(  5 -  5) =     -9.00985  eV     1   --> B_2  D_4  S_4  
     e(  6 -  6) =     -7.99574  eV     1   --> B_2  D_4  S_4  
     e(  7 -  7) =     -7.64039  eV     1   --> A_1  D_1  S_1  
     e(  8 -  8) =     -5.51160  eV     1   --> A_2  D_2  S_2  
     e(  9 -  9) =     -4.84086  eV     1   --> A_1  D_1  S_1  
     e( 10 - 10) =     -4.79842  eV     1   --> B_1  D_3  S_3  
     e( 11 - 11) =     -4.23889  eV     1   --> B_2  D_4  S_4  
     e( 12 - 12) =     -2.76342  eV     1   --> B_1  D_3  S_3  
     e( 13 - 13) =      1.10651  eV     1   --> B_1  D_3  S_3  
     e( 14 - 14) =      2.85858  eV     1   --> B_2  D_4  S_4  
     e( 15 - 15) =      3.16754  eV     1   --> A_1  D_1  S_1  
     e( 16 - 16) =      3.42557  eV     1   --> A_2  D_2  S_2  

 **************************************************************************

 **************************************************************************

                    xk=(   0.23333,   0.57735,   0.25000  )

     Band symmetry, C_2v (mm2)  point group:

     e(  1 -  1) =    -15.17679  eV     1   --> B_2  D_4  S_4  
     e(  2 -  2) =    -14.76334  eV     1   --> A_1  D_1  S_1  
     e(  3 -  3) =    -12.85041  eV     1   --> A_1  D_1  S_1  
     e(  4 -  4) =     -9.95147  eV     1   --> A_1  D_1  S_1  
     e(  5 -  5) =     -9.11344  eV     1   --> B_2  D_4  S_4  
     e(  6 -  6) =     -7.95153  eV     1   --> B_2  D_4  S_4  
     e(  7 -  7) =     -7.78027  eV     1   --> A_1  D_1  S_1  
     e(  8 -  8) =     -5.43124  eV     1   --> A_2  D_2  S_2  
     e(  9 -  9) =     -4.84373  eV     1   --> B_1  D_3  S_3  
     e( 10 - 10) =     -4.71386  eV     1   --> A_1  D_1  S_1  
     e( 11 - 11) =     -4.29243  eV     1   --> B_2  D_4  S_4  
     e( 12 - 12) =     -2.91038  eV     1   --> B_1  D_3  S_3  
     e( 13 - 13) =      1.47280  eV     1   --> B_1  D_3  S_3  
     e( 14 - 14) =      2.80428  eV     1   --> B_2  D_4  S_4  
     e( 15 - 15) =      3.10954  eV     1   --> A_1  D_1  S_1  
     e( 16 - 16) =      3.16709  eV     1   --> A_2  D_2  S_2  

 **************************************************************************

 **************************************************************************

                    xk=(   0.26666,   0.57735,   0.25000  )

     Band symmetry, C_2v (mm2)  point group:

     e(  1 -  1) =    -15.11546  eV     1   --> B_2  D_4  S_4  
     e(  2 -  2) =    -14.82248  eV     1   --> A_1  D_1  S_1  
     e(  3 -  3) =    -12.89693  eV     1   --> A_1  D_1  S_1  
     e(  4 -  4) =     -9.75140  eV     1   --> A_1  D_1  S_1  
     e(  5 -  5) =     -9.21958  eV     1   --> B_2  D_4  S_4  
     e(  6 -  6) =     -7.91671  eV     1   --> B_2  D_4  S_4  
     e(  7 -  7) =     -7.89960  eV     1   --> A_1  D_1  S_1  
     e(  8 -  8) =     -5.33857  eV     1   --> A_2  D_2  S_2  
     e(  9 -  9) =     -4.91130  eV     1   --> B_1  D_3  S_3  
     e( 10 - 10) =     -4.60481  eV     1   --> A_1  D_1  S_1  
     e( 11 - 11) =     -4.34937  eV     1   --> B_2  D_4  S_4  
     e( 12 - 12) =     -3.01640  eV     1   --> B_1  D_3  S_3  
     e( 13 - 13) =      1.83227  eV     1   --> B_1  D_3  S_3  
     e( 14 - 14) =      2.78920  eV     1   --> B_2  D_4  S_4  
     e( 15 - 15) =      2.91666  eV     1   --> A_2  D_2  S_2  
     e( 16 - 16) =      3.03636  eV     1   --> A_1  D_1  S_1  

 **************************************************************************

 **************************************************************************

                    xk=(   0.30000,   0.57735,   0.25000  )

     Band symmetry, C_2v (mm2)  point group:

     e(  1 -  1) =    -15.04614  eV     1   --> B_2  D_4  S_4  
     e(  2 -  2) =    -14.89142  eV     1   --> A_1  D_1  S_1  
     e(  3 -  3) =    -12.92447  eV     1   --> A_1  D_1  S_1  
     e(  4 -  4) =     -9.57359  eV     1   --> A_1  D_1  S_1  
     e(  5 -  5) =     -9.32756  eV     1   --> B_2  D_4  S_4  
     e(  6 -  6) =     -7.98464  eV     1   --> A_1  D_1  S_1  
     e(  7 -  7) =     -7.89377  eV     1   --> B_2  D_4  S_4  
     e(  8 -  8) =     -5.23363  eV     1   --> A_2  D_2  S_2  
     e(  9 -  9) =     -5.00280  eV     1   --> B_1  D_3  S_3  
     e( 10 - 10) =     -4.51832  eV     1   --> A_1  D_1  S_1  
     e( 11 - 11) =     -4.40593  eV     1   --> B_2  D_4  S_4  
     e( 12 - 12) =     -3.07880  eV     1   --> B_1  D_3  S_3  
     e( 13 - 13) =      2.16716  eV     1   --> B_1  D_3  S_3  
     e( 14 - 14) =      2.67494  eV     1   --> A_2  D_2  S_2  
     e( 15 - 15) =      2.81273  eV     1   --> B_2  D_4  S_4  
     e( 16 - 16) =      2.95472  eV     1   --> A_1  D_1  S_1  

 **************************************************************************

 **************************************************************************

                    xk=(   0.33333,   0.57734,   0.25000  )

     point group D_3h (-62m)
     there are  6 classes
     the character table:

       E     2C3   3C2   s_h   2S3   3s_v 
A'_1   1.00  1.00  1.00  1.00  1.00  1.00
A'_2   1.00  1.00 -1.00  1.00  1.00 -1.00
E'     2.00 -1.00  0.00  2.00 -1.00  0.00
A''1   1.00  1.00  1.00 -1.00 -1.00 -1.00
A''2   1.00  1.00 -1.00 -1.00 -1.00  1.00
E''    2.00 -1.00  0.00 -2.00  1.00  0.00

     the symmetry operations in each class and the name of the first element:

     E        1
                                                                 
     2C3      3    4
                                                                 
     3C2      2    5    6
                                                                 
     s_h      7
                                                                 
     2S3      9   10
                                                                 
     3s_v     8   12   11
                                                                 

     Band symmetry, D_3h (-62m) point group:

     e(  1 -  2) =    -14.96891  eV     2   --> E'             
     e(  3 -  3) =    -12.93342  eV     1   --> A'_1           
     e(  4 -  5) =     -9.43678  eV     2   --> E'             
     e(  6 -  6) =     -8.01723  eV     1   --> A'_1           
     e(  7 -  7) =     -7.88548  eV     1   --> A'_2           
     e(  8 -  9) =     -5.11643  eV     2   --> E''            
     e( 10 - 11) =     -4.45753  eV     2   --> E'             
     e( 12 - 12) =     -3.09878  eV     1   --> A''2           
     e( 13 - 14) =      2.44238  eV     2   --> E''            
     e( 15 - 16) =      2.87345  eV     2   --> E'             

 **************************************************************************

 **************************************************************************

                    xk=(   0.31746,   0.54985,   0.25000  )

     point group C_2v (mm2) 
     there are  4 classes
     the character table:

       E     C2    s_v   s_v' 
A_1    1.00  1.00  1.00  1.00
A_2    1.00  1.00 -1.00 -1.00
B_1    1.00 -1.00  1.00 -1.00
B_2    1.00 -1.00 -1.00  1.00

     the symmetry operations in each class and the name of the first element:

     E        1
                                                                 
     C2       2
                                                                 
     s_v      3
                                                                 
     s_v'     4
                                                                 

     Band symmetry, C_2v (mm2)  point group:

     e(  1 -  1) =    -15.04901  eV     1   --> A_1  D_1  S_1  
     e(  2 -  2) =    -14.88804  eV     1   --> B_1  D_3  S_3  
     e(  3 -  3) =    -12.92578  eV     1   --> A_1  D_1  S_1  
     e(  4 -  4) =     -9.54144  eV     1   --> B_1  D_3  S_3  
     e(  5 -  5) =     -9.36109  eV     1   --> A_1  D_1  S_1  
     e(  6 -  6) =     -7.98396  eV     1   --> A_1  D_1  S_1  
     e(  7 -  7) =     -7.89382  eV     1   --> B_1  D_3  S_3  
     e(  8 -  8) =     -5.24105  eV     1   --> B_2  D_4  S_4  
     e(  9 -  9) =     -4.99344  eV     1   --> A_2  D_2  S_2  
     e( 10 - 10) =     -4.49724  eV     1   --> B_1  D_3  S_3  
     e( 11 - 11) =     -4.42469  eV     1   --> A_1  D_1  S_1  
     e( 12 - 12) =     -3.08218  eV     1   --> B_2  D_4  S_4  
     e( 13 - 13) =      2.22994  eV     1   --> A_2  D_2  S_2  
     e( 14 - 14) =      2.60004  eV     1   --> B_2  D_4  S_4  
     e( 15 - 15) =      2.80192  eV     1   --> A_1  D_1  S_1  
     e( 16 - 16) =      2.96401  eV     1   --> B_1  D_3  S_3  

 **************************************************************************

 **************************************************************************

                    xk=(   0.30158,   0.52236,   0.25000  )

     Band symmetry, C_2v (mm2)  point group:

     e(  1 -  1) =    -15.13355  eV     1   --> A_1  D_1  S_1  
     e(  2 -  2) =    -14.80012  eV     1   --> B_1  D_3  S_3  
     e(  3 -  3) =    -12.90395  eV     1   --> A_1  D_1  S_1  
     e(  4 -  4) =     -9.64633  eV     1   --> B_1  D_3  S_3  
     e(  5 -  5) =     -9.34265  eV     1   --> A_1  D_1  S_1  
     e(  6 -  6) =     -7.92028  eV     1   --> B_1  D_3  S_3  
     e(  7 -  7) =     -7.88541  eV     1   --> A_1  D_1  S_1  
     e(  8 -  8) =     -5.37667  eV     1   --> B_2  D_4  S_4  
     e(  9 -  9) =     -4.85941  eV     1   --> A_2  D_2  S_2  
     e( 10 - 10) =     -4.52324  eV     1   --> B_1  D_3  S_3  
     e( 11 - 11) =     -4.41580  eV     1   --> A_1  D_1  S_1  
     e( 12 - 12) =     -3.03567  eV     1   --> B_2  D_4  S_4  
     e( 13 - 13) =      2.02657  eV     1   --> A_2  D_2  S_2  
     e( 14 - 14) =      2.63387  eV     1   --> B_2  D_4  S_4  
     e( 15 - 15) =      2.73712  eV     1   --> A_1  D_1  S_1  
     e( 16 - 16) =      3.08424  eV     1   --> B_1  D_3  S_3  

 **************************************************************************

 **************************************************************************

                    xk=(   0.28571,   0.49487,   0.25000  )

     Band symmetry, C_2v (mm2)  point group:

     e(  1 -  1) =    -15.22079  eV     1   --> A_1  D_1  S_1  
     e(  2 -  2) =    -14.70526  eV     1   --> B_1  D_3  S_3  
     e(  3 -  3) =    -12.86972  eV     1   --> A_1  D_1  S_1  
     e(  4 -  4) =     -9.75114  eV     1   --> B_1  D_3  S_3  
     e(  5 -  5) =     -9.36991  eV     1   --> A_1  D_1  S_1  
     e(  6 -  6) =     -7.96648  eV     1   --> B_1  D_3  S_3  
     e(  7 -  7) =     -7.73529  eV     1   --> A_1  D_1  S_1  
     e(  8 -  8) =     -5.51854  eV     1   --> B_2  D_4  S_4  
     e(  9 -  9) =     -4.71438  eV     1   --> A_2  D_2  S_2  
     e( 10 - 10) =     -4.53150  eV     1   --> B_1  D_3  S_3  
     e( 11 - 11) =     -4.42809  eV     1   --> A_1  D_1  S_1  
     e( 12 - 12) =     -2.96390  eV     1   --> B_2  D_4  S_4  
     e( 13 - 13) =      1.83254  eV     1   --> A_2  D_2  S_2  
     e( 14 - 14) =      2.57878  eV     1   --> B_2  D_4  S_4  
     e( 15 - 15) =      2.67648  eV     1   --> A_1  D_1  S_1  
     e( 16 - 16) =      3.23176  eV     1   --> B_1  D_3  S_3  

 **************************************************************************

 **************************************************************************

                    xk=(   0.26984,   0.46737,   0.25000  )

     Band symmetry, C_2v (mm2)  point group:

     e(  1 -  1) =    -15.30912  eV     1   --> A_1  D_1  S_1  
     e(  2 -  2) =    -14.60355  eV     1   --> B_1  D_3  S_3  
     e(  3 -  3) =    -12.82490  eV     1   --> A_1  D_1  S_1  
     e(  4 -  4) =     -9.85567  eV     1   --> B_1  D_3  S_3  
     e(  5 -  5) =     -9.42558  eV     1   --> A_1  D_1  S_1  
     e(  6 -  6) =     -8.03312  eV     1   --> B_1  D_3  S_3  
     e(  7 -  7) =     -7.55409  eV     1   --> A_1  D_1  S_1  
     e(  8 -  8) =     -5.66266  eV     1   --> B_2  D_4  S_4  
     e(  9 -  9) =     -4.55840  eV     1   --> A_2  D_2  S_2  
     e( 10 - 10) =     -4.51890  eV     1   --> B_1  D_3  S_3  
     e( 11 - 11) =     -4.45658  eV     1   --> A_1  D_1  S_1  
     e( 12 - 12) =     -2.87088  eV     1   --> B_2  D_4  S_4  
     e( 13 - 13) =      1.64806  eV     1   --> A_2  D_2  S_2  
     e( 14 - 14) =      2.47831  eV     1   --> B_2  D_4  S_4  
     e( 15 - 15) =      2.61540  eV     1   --> A_1  D_1  S_1  
     e( 16 - 16) =      3.40391  eV     1   --> B_1  D_3  S_3  

 **************************************************************************

 **************************************************************************

                    xk=(   0.25397,   0.43988,   0.25000  )

     Band symmetry, C_2v (mm2)  point group:

     e(  1 -  1) =    -15.39711  eV     1   --> A_1  D_1  S_1  
     e(  2 -  2) =    -14.49511  eV     1   --> B_1  D_3  S_3  
     e(  3 -  3) =    -12.77130  eV     1   --> A_1  D_1  S_1  
     e(  4 -  4) =     -9.95981  eV     1   --> B_1  D_3  S_3  
     e(  5 -  5) =     -9.49541  eV     1   --> A_1  D_1  S_1  
     e(  6 -  6) =     -8.11975  eV     1   --> B_1  D_3  S_3  
     e(  7 -  7) =     -7.36083  eV     1   --> A_1  D_1  S_1  
     e(  8 -  8) =     -5.80592  eV     1   --> B_2  D_4  S_4  
     e(  9 -  9) =     -4.49372  eV     1   --> A_1  D_1  S_1  
     e( 10 - 10) =     -4.48348  eV     1   --> B_1  D_3  S_3  
     e( 11 - 11) =     -4.39152  eV     1   --> A_2  D_2  S_2  
     e( 12 - 12) =     -2.75984  eV     1   --> B_2  D_4  S_4  
     e( 13 - 13) =      1.47332  eV     1   --> A_2  D_2  S_2  
     e( 14 - 14) =      2.35752  eV     1   --> B_2  D_4  S_4  
     e( 15 - 15) =      2.54882  eV     1   --> A_1  D_1  S_1  
     e( 16 - 16) =      3.59774  eV     1   --> B_1  D_3  S_3  

 **************************************************************************

 **************************************************************************

                    xk=(   0.23809,   0.41239,   0.25000  )

     Band symmetry, C_2v (mm2)  point group:

     e(  1 -  1) =    -15.48357  eV     1   --> A_1  D_1  S_1  
     e(  2 -  2) =    -14.38007  eV     1   --> B_1  D_3  S_3  
     e(  3 -  3) =    -12.71070  eV     1   --> A_1  D_1  S_1  
     e(  4 -  4) =    -10.06362  eV     1   --> B_1  D_3  S_3  
     e(  5 -  5) =     -9.56987  eV     1   --> A_1  D_1  S_1  
     e(  6 -  6) =     -8.22477  eV     1   --> B_1  D_3  S_3  
     e(  7 -  7) =     -7.17199  eV     1   --> A_1  D_1  S_1  
     e(  8 -  8) =     -5.94593  eV     1   --> B_2  D_4  S_4  
     e(  9 -  9) =     -4.52914  eV     1   --> A_1  D_1  S_1  
     e( 10 - 10) =     -4.42450  eV     1   --> B_1  D_3  S_3  
     e( 11 - 11) =     -4.21381  eV     1   --> A_2  D_2  S_2  
     e( 12 - 12) =     -2.63332  eV     1   --> B_2  D_4  S_4  
     e( 13 - 13) =      1.30847  eV     1   --> A_2  D_2  S_2  
     e( 14 - 14) =      2.22848  eV     1   --> B_2  D_4  S_4  
     e( 15 - 15) =      2.47231  eV     1   --> A_1  D_1  S_1  
     e( 16 - 16) =      3.80904  eV     1   --> B_1  D_3  S_3  

 **************************************************************************

 **************************************************************************

                    xk=(   0.22222,   0.38490,   0.25000  )

     Band symmetry, C_2v (mm2)  point group:

     e(  1 -  1) =    -15.56747  eV     1   --> A_1  D_1  S_1  
     e(  2 -  2) =    -14.25859  eV     1   --> B_1  D_3  S_3  
     e(  3 -  3) =    -12.64483  eV     1   --> A_1  D_1  S_1  
     e(  4 -  4) =    -10.16731  eV     1   --> B_1  D_3  S_3  
     e(  5 -  5) =     -9.64286  eV     1   --> A_1  D_1  S_1  
     e(  6 -  6) =     -8.34558  eV     1   --> B_1  D_3  S_3  
     e(  7 -  7) =     -7.00314  eV     1   --> A_1  D_1  S_1  
     e(  8 -  8) =     -6.08094  eV     1   --> B_2  D_4  S_4  
     e(  9 -  9) =     -4.54956  eV     1   --> A_1  D_1  S_1  
     e( 10 - 10) =     -4.34228  eV     1   --> B_1  D_3  S_3  
     e( 11 - 11) =     -4.02536  eV     1   --> A_2  D_2  S_2  
     e( 12 - 12) =     -2.49333  eV     1   --> B_2  D_4  S_4  
     e( 13 - 13) =      1.15364  eV     1   --> A_2  D_2  S_2  
     e( 14 - 14) =      2.09705  eV     1   --> B_2  D_4  S_4  
     e( 15 - 15) =      2.38252  eV     1   --> A_1  D_1  S_1  
     e( 16 - 16) =      3.79214  eV     1   --> A_1  D_1  S_1  

 **************************************************************************

 **************************************************************************

                    xk=(   0.20635,   0.35740,   0.25000  )

     Band symmetry, C_2v (mm2)  point group:

     e(  1 -  1) =    -15.64797  eV     1   --> A_1  D_1  S_1  
     e(  2 -  2) =    -14.13081  eV     1   --> B_1  D_3  S_3  
     e(  3 -  3) =    -12.57543  eV     1   --> A_1  D_1  S_1  
     e(  4 -  4) =    -10.27129  eV     1   --> B_1  D_3  S_3  
     e(  5 -  5) =     -9.71038  eV     1   --> A_1  D_1  S_1  
     e(  6 -  6) =     -8.47887  eV     1   --> B_1  D_3  S_3  
     e(  7 -  7) =     -6.86963  eV     1   --> A_1  D_1  S_1  
     e(  8 -  8) =     -6.20963  eV     1   --> B_2  D_4  S_4  
     e(  9 -  9) =     -4.53972  eV     1   --> A_1  D_1  S_1  
     e( 10 - 10) =     -4.23793  eV     1   --> B_1  D_3  S_3  
     e( 11 - 11) =     -3.82625  eV     1   --> A_2  D_2  S_2  
     e( 12 - 12) =     -2.34153  eV     1   --> B_2  D_4  S_4  
     e( 13 - 13) =      1.00893  eV     1   --> A_2  D_2  S_2  
     e( 14 - 14) =      1.96619  eV     1   --> B_2  D_4  S_4  
     e( 15 - 15) =      2.27716  eV     1   --> A_1  D_1  S_1  
     e( 16 - 16) =      3.64799  eV     1   --> A_1  D_1  S_1  

 **************************************************************************

 **************************************************************************

                    xk=(   0.19047,   0.32991,   0.25000  )

     Band symmetry, C_2v (mm2)  point group:

     e(  1 -  1) =    -15.72440  eV     1   --> A_1  D_1  S_1  
     e(  2 -  2) =    -13.99695  eV     1   --> B_1  D_3  S_3  
     e(  3 -  3) =    -12.50422  eV     1   --> A_1  D_1  S_1  
     e(  4 -  4) =    -10.37619  eV     1   --> B_1  D_3  S_3  
     e(  5 -  5) =     -9.76969  eV     1   --> A_1  D_1  S_1  
     e(  6 -  6) =     -8.62088  eV     1   --> B_1  D_3  S_3  
     e(  7 -  7) =     -6.78464  eV     1   --> A_1  D_1  S_1  
     e(  8 -  8) =     -6.33101  eV     1   --> B_2  D_4  S_4  
     e(  9 -  9) =     -4.48548  eV     1   --> A_1  D_1  S_1  
     e( 10 - 10) =     -4.11302  eV     1   --> B_1  D_3  S_3  
     e( 11 - 11) =     -3.61661  eV     1   --> A_2  D_2  S_2  
     e( 12 - 12) =     -2.17934  eV     1   --> B_2  D_4  S_4  
     e( 13 - 13) =      0.87440  eV     1   --> A_2  D_2  S_2  
     e( 14 - 14) =      1.83736  eV     1   --> B_2  D_4  S_4  
     e( 15 - 15) =      2.15485  eV     1   --> A_1  D_1  S_1  
     e( 16 - 16) =      3.51300  eV     1   --> A_1  D_1  S_1  

 **************************************************************************

 **************************************************************************

                    xk=(   0.17460,   0.30242,   0.25000  )

     Band symmetry, C_2v (mm2)  point group:

     e(  1 -  1) =    -15.79618  eV     1   --> A_1  D_1  S_1  
     e(  2 -  2) =    -13.85722  eV     1   --> B_1  D_3  S_3  
     e(  3 -  3) =    -12.43295  eV     1   --> A_1  D_1  S_1  
     e(  4 -  4) =    -10.48287  eV     1   --> B_1  D_3  S_3  
     e(  5 -  5) =     -9.81881  eV     1   --> A_1  D_1  S_1  
     e(  6 -  6) =     -8.76764  eV     1   --> B_1  D_3  S_3  
     e(  7 -  7) =     -6.75478  eV     1   --> A_1  D_1  S_1  
     e(  8 -  8) =     -6.44434  eV     1   --> B_2  D_4  S_4  
     e(  9 -  9) =     -4.37875  eV     1   --> A_1  D_1  S_1  
     e( 10 - 10) =     -3.96944  eV     1   --> B_1  D_3  S_3  
     e( 11 - 11) =     -3.39658  eV     1   --> A_2  D_2  S_2  
     e( 12 - 12) =     -2.00806  eV     1   --> B_2  D_4  S_4  
     e( 13 - 13) =      0.75011  eV     1   --> A_2  D_2  S_2  
     e( 14 - 14) =      1.71119  eV     1   --> B_2  D_4  S_4  
     e( 15 - 15) =      2.01498  eV     1   --> A_1  D_1  S_1  
     e( 16 - 16) =      3.29953  eV     1   --> B_1  D_3  S_3  

 **************************************************************************

 **************************************************************************

                    xk=(   0.15873,   0.27493,   0.25000  )

     Band symmetry, C_2v (mm2)  point group:

     e(  1 -  1) =    -15.86286  eV     1   --> A_1  D_1  S_1  
     e(  2 -  2) =    -13.71187  eV     1   --> B_1  D_3  S_3  
     e(  3 -  3) =    -12.36335  eV     1   --> A_1  D_1  S_1  
     e(  4 -  4) =    -10.59242  eV     1   --> B_1  D_3  S_3  
     e(  5 -  5) =     -9.85634  eV     1   --> A_1  D_1  S_1  
     e(  6 -  6) =     -8.91516  eV     1   --> B_1  D_3  S_3  
     e(  7 -  7) =     -6.77735  eV     1   --> A_1  D_1  S_1  
     e(  8 -  8) =     -6.54905  eV     1   --> B_2  D_4  S_4  
     e(  9 -  9) =     -4.22067  eV     1   --> A_1  D_1  S_1  
     e( 10 - 10) =     -3.80918  eV     1   --> B_1  D_3  S_3  
     e( 11 - 11) =     -3.16634  eV     1   --> A_2  D_2  S_2  
     e( 12 - 12) =     -1.82897  eV     1   --> B_2  D_4  S_4  
     e( 13 - 13) =      0.63606  eV     1   --> A_2  D_2  S_2  
     e( 14 - 14) =      1.58772  eV     1   --> B_2  D_4  S_4  
     e( 15 - 15) =      1.85756  eV     1   --> A_1  D_1  S_1  
     e( 16 - 16) =      2.90194  eV     1   --> B_1  D_3  S_3  

 **************************************************************************

 **************************************************************************

                    xk=(   0.14286,   0.24743,   0.25000  )

     Band symmetry, C_2v (mm2)  point group:

     e(  1 -  1) =    -15.92407  eV     1   --> A_1  D_1  S_1  
     e(  2 -  2) =    -13.56118  eV     1   --> B_1  D_3  S_3  
     e(  3 -  3) =    -12.29706  eV     1   --> A_1  D_1  S_1  
     e(  4 -  4) =    -10.70611  eV     1   --> B_1  D_3  S_3  
     e(  5 -  5) =     -9.88137  eV     1   --> A_1  D_1  S_1  
     e(  6 -  6) =     -9.05945  eV     1   --> B_1  D_3  S_3  
     e(  7 -  7) =     -6.84236  eV     1   --> A_1  D_1  S_1  
     e(  8 -  8) =     -6.64470  eV     1   --> B_2  D_4  S_4  
     e(  9 -  9) =     -4.01976  eV     1   --> A_1  D_1  S_1  
     e( 10 - 10) =     -3.63435  eV     1   --> B_1  D_3  S_3  
     e( 11 - 11) =     -2.92613  eV     1   --> A_2  D_2  S_2  
     e( 12 - 12) =     -1.64336  eV     1   --> B_2  D_4  S_4  
     e( 13 - 13) =      0.53219  eV     1   --> A_2  D_2  S_2  
     e( 14 - 14) =      1.46655  eV     1   --> B_2  D_4  S_4  
     e( 15 - 15) =      1.68330  eV     1   --> A_1  D_1  S_1  
     e( 16 - 16) =      2.51216  eV     1   --> B_1  D_3  S_3  

 **************************************************************************

 **************************************************************************

                    xk=(   0.12698,   0.21994,   0.25000  )

     Band symmetry, C_2v (mm2)  point group:

     e(  1 -  1) =    -15.97949  eV     1   --> A_1  D_1  S_1  
     e(  2 -  2) =    -13.40550  eV     1   --> B_1  D_3  S_3  
     e(  3 -  3) =    -12.23562  eV     1   --> A_1  D_1  S_1  
     e(  4 -  4) =    -10.82531  eV     1   --> B_1  D_3  S_3  
     e(  5 -  5) =     -9.89361  eV     1   --> A_1  D_1  S_1  
     e(  6 -  6) =     -9.19676  eV     1   --> B_1  D_3  S_3  
     e(  7 -  7) =     -6.93720  eV     1   --> A_1  D_1  S_1  
     e(  8 -  8) =     -6.73096  eV     1   --> B_2  D_4  S_4  
     e(  9 -  9) =     -3.78746  eV     1   --> A_1  D_1  S_1  
     e( 10 - 10) =     -3.44722  eV     1   --> B_1  D_3  S_3  
     e( 11 - 11) =     -2.67628  eV     1   --> A_2  D_2  S_2  
     e( 12 - 12) =     -1.45265  eV     1   --> B_2  D_4  S_4  
     e( 13 - 13) =      0.43837  eV     1   --> A_2  D_2  S_2  
     e( 14 - 14) =      1.34696  eV     1   --> B_2  D_4  S_4  
     e( 15 - 15) =      1.49362  eV     1   --> A_1  D_1  S_1  
     e( 16 - 16) =      2.13316  eV     1   --> B_1  D_3  S_3  

 **************************************************************************

 **************************************************************************

                    xk=(   0.11111,   0.19245,   0.25000  )

     Band symmetry, C_2v (mm2)  point group:

     e(  1 -  1) =    -16.02889  eV     1   --> A_1  D_1  S_1  
     e(  2 -  2) =    -13.24522  eV     1   --> B_1  D_3  S_3  
     e(  3 -  3) =    -12.18028  eV     1   --> A_1  D_1  S_1  
     e(  4 -  4) =    -10.95129  eV     1   --> B_1  D_3  S_3  
     e(  5 -  5) =     -9.89344  eV     1   --> A_1  D_1  S_1  
     e(  6 -  6) =     -9.32366  eV     1   --> B_1  D_3  S_3  
     e(  7 -  7) =     -7.04994  eV     1   --> A_1  D_1  S_1  
     e(  8 -  8) =     -6.80756  eV     1   --> B_2  D_4  S_4  
     e(  9 -  9) =     -3.53484  eV     1   --> A_1  D_1  S_1  
     e( 10 - 10) =     -3.25041  eV     1   --> B_1  D_3  S_3  
     e( 11 - 11) =     -2.41723  eV     1   --> A_2  D_2  S_2  
     e( 12 - 12) =     -1.25847  eV     1   --> B_2  D_4  S_4  
     e( 13 - 13) =      0.35432  eV     1   --> A_2  D_2  S_2  
     e( 14 - 14) =      1.22797  eV     1   --> B_2  D_4  S_4  
     e( 15 - 15) =      1.29086  eV     1   --> A_1  D_1  S_1  
     e( 16 - 16) =      1.76759  eV     1   --> B_1  D_3  S_3  

 **************************************************************************

 **************************************************************************

                    xk=(   0.09524,   0.16496,   0.25000  )

     Band symmetry, C_2v (mm2)  point group:

     e(  1 -  1) =    -16.07206  eV     1   --> A_1  D_1  S_1  
     e(  2 -  2) =    -13.08078  eV     1   --> B_1  D_3  S_3  
     e(  3 -  3) =    -12.13200  eV     1   --> A_1  D_1  S_1  
     e(  4 -  4) =    -11.08504  eV     1   --> B_1  D_3  S_3  
     e(  5 -  5) =     -9.88210  eV     1   --> A_1  D_1  S_1  
     e(  6 -  6) =     -9.43725  eV     1   --> B_1  D_3  S_3  
     e(  7 -  7) =     -7.17043  eV     1   --> A_1  D_1  S_1  
     e(  8 -  8) =     -6.87429  eV     1   --> B_2  D_4  S_4  
     e(  9 -  9) =     -3.27186  eV     1   --> A_1  D_1  S_1  
     e( 10 - 10) =     -3.04716  eV     1   --> B_1  D_3  S_3  
     e( 11 - 11) =     -2.14966  eV     1   --> A_2  D_2  S_2  
     e( 12 - 12) =     -1.06277  eV     1   --> B_2  D_4  S_4  
     e( 13 - 13) =      0.27948  eV     1   --> A_2  D_2  S_2  
     e( 14 - 14) =      1.07847  eV     1   --> A_1  D_1  S_1  
     e( 15 - 15) =      1.10843  eV     1   --> B_2  D_4  S_4  
     e( 16 - 16) =      1.41856  eV     1   --> B_1  D_3  S_3  

 **************************************************************************

 **************************************************************************

                    xk=(   0.07936,   0.13746,   0.25000  )

     Band symmetry, C_2v (mm2)  point group:

     e(  1 -  1) =    -16.10883  eV     1   --> A_1  D_1  S_1  
     e(  2 -  2) =    -12.91274  eV     1   --> B_1  D_3  S_3  
     e(  3 -  3) =    -12.09134  eV     1   --> A_1  D_1  S_1  
     e(  4 -  4) =    -11.22703  eV     1   --> B_1  D_3  S_3  
     e(  5 -  5) =     -9.86179  eV     1   --> A_1  D_1  S_1  
     e(  6 -  6) =     -9.53529  eV     1   --> B_1  D_3  S_3  
     e(  7 -  7) =     -7.29007  eV     1   --> A_1  D_1  S_1  
     e(  8 -  8) =     -6.93099  eV     1   --> B_2  D_4  S_4  
     e(  9 -  9) =     -3.00791  eV     1   --> A_1  D_1  S_1  
     e( 10 - 10) =     -2.84186  eV     1   --> B_1  D_3  S_3  
     e( 11 - 11) =     -1.87462  eV     1   --> A_2  D_2  S_2  
     e( 12 - 12) =     -0.86801  eV     1   --> B_2  D_4  S_4  
     e( 13 - 13) =      0.21269  eV     1   --> A_2  D_2  S_2  
     e( 14 - 14) =      0.86152  eV     1   --> A_1  D_1  S_1  
     e( 15 - 15) =      0.98734  eV     1   --> B_2  D_4  S_4  
     e( 16 - 16) =      1.09027  eV     1   --> B_1  D_3  S_3  

 **************************************************************************

 **************************************************************************

                    xk=(   0.06349,   0.10997,   0.25000  )

     Band symmetry, C_2v (mm2)  point group:

     e(  1 -  1) =    -16.13908  eV     1   --> A_1  D_1  S_1  
     e(  2 -  2) =    -12.74175  eV     1   --> B_1  D_3  S_3  
     e(  3 -  3) =    -12.05853  eV     1   --> A_1  D_1  S_1  
     e(  4 -  4) =    -11.37713  eV     1   --> B_1  D_3  S_3  
     e(  5 -  5) =     -9.83575  eV     1   --> A_1  D_1  S_1  
     e(  6 -  6) =     -9.61632  eV     1   --> B_1  D_3  S_3  
     e(  7 -  7) =     -7.40130  eV     1   --> A_1  D_1  S_1  
     e(  8 -  8) =     -6.97753  eV     1   --> B_2  D_4  S_4  
     e(  9 -  9) =     -2.75311  eV     1   --> A_1  D_1  S_1  
     e( 10 - 10) =     -2.64089  eV     1   --> B_1  D_3  S_3  
     e( 11 - 11) =     -1.59395  eV     1   --> A_2  D_2  S_2  
     e( 12 - 12) =     -0.67753  eV     1   --> B_2  D_4  S_4  
     e( 13 - 13) =      0.15147  eV     1   --> A_2  D_2  S_2  
     e( 14 - 14) =      0.64739  eV     1   --> A_1  D_1  S_1  
     e( 15 - 15) =      0.78891  eV     1   --> B_1  D_3  S_3  
     e( 16 - 16) =      0.86429  eV     1   --> B_2  D_4  S_4  

 **************************************************************************

 **************************************************************************

                    xk=(   0.04762,   0.08248,   0.25000  )

     Band symmetry, C_2v (mm2)  point group:

     e(  1 -  1) =    -16.16270  eV     1   --> A_1  D_1  S_1  
     e(  2 -  2) =    -12.56861  eV     1   --> B_1  D_3  S_3  
     e(  3 -  3) =    -12.03347  eV     1   --> A_1  D_1  S_1  
     e(  4 -  4) =    -11.53457  eV     1   --> B_1  D_3  S_3  
     e(  5 -  5) =     -9.80814  eV     1   --> A_1  D_1  S_1  
     e(  6 -  6) =     -9.67953  eV     1   --> B_1  D_3  S_3  
     e(  7 -  7) =     -7.49722  eV     1   --> A_1  D_1  S_1  
     e(  8 -  8) =     -7.01383  eV     1   --> B_2  D_4  S_4  
     e(  9 -  9) =     -2.52016  eV     1   --> A_1  D_1  S_1  
     e( 10 - 10) =     -2.45393  eV     1   --> B_1  D_3  S_3  
     e( 11 - 11) =     -1.31121  eV     1   --> A_2  D_2  S_2  
     e( 12 - 12) =     -0.49646  eV     1   --> B_2  D_4  S_4  
     e( 13 - 13) =      0.09013  eV     1   --> A_2  D_2  S_2  
     e( 14 - 14) =      0.44714  eV     1   --> A_1  D_1  S_1  
     e( 15 - 15) =      0.52402  eV     1   --> B_1  D_3  S_3  
     e( 16 - 16) =      0.74062  eV     1   --> B_2  D_4  S_4  

 **************************************************************************

 **************************************************************************

                    xk=(   0.03175,   0.05499,   0.25000  )

     Band symmetry, C_2v (mm2)  point group:

     e(  1 -  1) =    -16.17963  eV     1   --> A_1  D_1  S_1  
     e(  2 -  2) =    -12.39441  eV     1   --> B_1  D_3  S_3  
     e(  3 -  3) =    -12.01591  eV     1   --> A_1  D_1  S_1  
     e(  4 -  4) =    -11.69800  eV     1   --> B_1  D_3  S_3  
     e(  5 -  5) =     -9.78360  eV     1   --> A_1  D_1  S_1  
     e(  6 -  6) =     -9.72463  eV     1   --> B_1  D_3  S_3  
     e(  7 -  7) =     -7.57144  eV     1   --> A_1  D_1  S_1  
     e(  8 -  8) =     -7.03980  eV     1   --> B_2  D_4  S_4  
     e(  9 -  9) =     -2.32630  eV     1   --> A_1  D_1  S_1  
     e( 10 - 10) =     -2.29564  eV     1   --> B_1  D_3  S_3  
     e( 11 - 11) =     -1.03464  eV     1   --> A_2  D_2  S_2  
     e( 12 - 12) =     -0.33394  eV     1   --> B_2  D_4  S_4  
     e( 13 - 13) =      0.01592  eV     1   --> A_2  D_2  S_2  
     e( 14 - 14) =      0.27709  eV     1   --> A_1  D_1  S_1  
     e( 15 - 15) =      0.31015  eV     1   --> B_1  D_3  S_3  
     e( 16 - 16) =      0.62200  eV     1   --> B_2  D_4  S_4  

 **************************************************************************

 **************************************************************************

                    xk=(   0.01587,   0.02749,   0.25000  )

     Band symmetry, C_2v (mm2)  point group:

     e(  1 -  1) =    -16.18980  eV     1   --> A_1  D_1  S_1  
     e(  2 -  2) =    -12.22126  eV     1   --> B_1  D_3  S_3  
     e(  3 -  3) =    -12.00553  eV     1   --> A_1  D_1  S_1  
     e(  4 -  4) =    -11.86491  eV     1   --> B_1  D_3  S_3  
     e(  5 -  5) =     -9.76664  eV     1   --> A_1  D_1  S_1  
     e(  6 -  6) =     -9.75163  eV     1   --> B_1  D_3  S_3  
     e(  7 -  7) =     -7.61853  eV     1   --> A_1  D_1  S_1  
     e(  8 -  8) =     -7.05540  eV     1   --> B_2  D_4  S_4  
     e(  9 -  9) =     -2.19411  eV     1   --> A_1  D_1  S_1  
     e( 10 - 10) =     -2.18621  eV     1   --> B_1  D_3  S_3  
     e( 11 - 11) =     -0.78887  eV     1   --> A_2  D_2  S_2  
     e( 12 - 12) =     -0.20911  eV     1   --> B_2  D_4  S_4  
     e( 13 - 13) =     -0.08605  eV     1   --> A_2  D_2  S_2  
     e( 14 - 14) =      0.15932  eV     1   --> A_1  D_1  S_1  
     e( 15 - 15) =      0.16740  eV     1   --> B_1  D_3  S_3  
     e( 16 - 16) =      0.52475  eV     1   --> B_2  D_4  S_4  

 **************************************************************************

 **************************************************************************

                    xk=(   0.00000,   0.00000,   0.25000  )

     point group D_6h(6/mmm)
     there are 12 classes
     the character table:

       E     2C6   2C3   C2    3C2'  3C2'' i     2S3   2S6   s_h   3s_d  3s_v 
A_1g   1.00  1.00  1.00  1.00  1.00  1.00  1.00  1.00  1.00  1.00  1.00  1.00
A_2g   1.00  1.00  1.00  1.00 -1.00 -1.00  1.00  1.00  1.00  1.00 -1.00 -1.00
B_1g   1.00 -1.00  1.00 -1.00  1.00 -1.00  1.00 -1.00  1.00 -1.00  1.00 -1.00
B_2g   1.00 -1.00  1.00 -1.00 -1.00  1.00  1.00 -1.00  1.00 -1.00 -1.00  1.00
E_1g   2.00  1.00 -1.00 -2.00  0.00  0.00  2.00  1.00 -1.00 -2.00  0.00  0.00
E_2g   2.00 -1.00 -1.00  2.00  0.00  0.00  2.00 -1.00 -1.00  2.00  0.00  0.00
A_1u   1.00  1.00  1.00  1.00  1.00  1.00 -1.00 -1.00 -1.00 -1.00 -1.00 -1.00
A_2u   1.00  1.00  1.00  1.00 -1.00 -1.00 -1.00 -1.00 -1.00 -1.00  1.00  1.00
B_1u   1.00 -1.00  1.00 -1.00  1.00 -1.00 -1.00  1.00 -1.00  1.00 -1.00  1.00
B_2u   1.00 -1.00  1.00 -1.00 -1.00  1.00 -1.00  1.00 -1.00  1.00  1.00 -1.00
E_1u   2.00  1.00 -1.00 -2.00  0.00  0.00 -2.00 -1.00  1.00  2.00  0.00  0.00
E_2u   2.00 -1.00 -1.00  2.00  0.00  0.00 -2.00  1.00  1.00 -2.00  0.00  0.00

     the symmetry operations in each class and the name of the first element:

     E        1
                                                                 
     2C6      5    6
                                                                 
     2C3      7    8
                                                                 
     C2       2
                                                                 
     3C2'     4   12   11
                                                                 
     3C2''    3    9   10
                                                                 
     i       13
                                                                 
     2S3     17   18
                                                                 
     2S6     19   20
                                                                 
     s_h     14
                                                                 
     3s_d    16   24   23
                                                                 
     3s_v    15   21   22
                                                                 

     Band symmetry, D_6h(6/mmm) point group:

     e(  1 -  1) =    -16.19320  eV     1   --> A_1g           
     e(  2 -  2) =    -12.08199  eV     1   --> B_2u           
     e(  3 -  4) =    -12.00214  eV     2   --> E_2g           
     e(  5 -  6) =     -9.76061  eV     2   --> E_1u           
     e(  7 -  7) =     -7.63469  eV     1   --> A_1g           
     e(  8 -  8) =     -7.06061  eV     1   --> A_2u           
     e(  9 - 10) =     -2.14655  eV     2   --> E_2g           
     e( 11 - 11) =     -0.66632  eV     1   --> B_1g           
     e( 12 - 13) =     -0.15865  eV     2   --> E_2u           
     e( 14 - 15) =      0.11661  eV     2   --> E_1u           
     e( 16 - 16) =      0.48363  eV     1   -->   ?

 **************************************************************************

     BANDS        :   1m24.00s CPU     56.16s WALL


   This run was terminated on:  18:47:12   3Jul2025            

=------------------------------------------------------------------------------=
   JOB DONE.
=------------------------------------------------------------------------------=
