
     Program PWSCF v.7.2 starts on  2Jul2025 at 11:40:35 

     This program is part of the open-source Quantum ESPRESSO suite
     for quantum simulation of materials; please cite
         "P. Giannozzi et al., J. Phys.:Condens. Matter 21 395502 (2009);
         "P. Giannozzi et al., J. Phys.:Condens. Matter 29 465901 (2017);
         "P. Giannozzi et al., J. Chem. Phys. 152 154105 (2020);
          URL http://www.quantum-espresso.org", 
     in publications or presentations arising from this work. More details at
     http://www.quantum-espresso.org/quote

     Parallel version (MPI & OpenMP), running on       2 processor cores
     Number of MPI processes:                 1
     Threads/MPI process:                     2

     MPI processes distributed on     1 nodes
     403 MiB available memory on the printing compute node when the environment starts

     Reading input from ../degauss/alpha_0.05.in

     Current dimensions of program PWSCF are:
     Max number of different atomic species (ntypx) = 10
     Max number of k-points (npk) =  40000
     Max angular momentum in pseudopotentials (lmaxx) =  4
     file B.pbesol-n-rrkjus_psl.1.0.0.UPF: wavefunction(s)  2S renormalized

     IMPORTANT: XC functional enforced from input :
     Exchange-correlation= PBESOL
                           (   1   4  10   8   0   0   0)
     Any further DFT definition will be discarded
     Please, verify this is what you really want


     Subspace diagonalization in iterative solution of the eigenvalue problem:
     a serial algorithm will be used


     G-vector sticks info
     --------------------
     sticks:   dense  smooth     PW     G-vecs:    dense   smooth      PW
     Sum        1735    1735    499               117515   117515   17051

     Using Slab Decomposition



     bravais-lattice index     =            4
     lattice parameter (alat)  =       9.5000  a.u.
     unit-cell volume          =    1485.0171 (a.u.)^3
     number of atoms/cell      =            8
     number of atomic types    =            1
     number of electrons       =        24.00
     number of Kohn-Sham states=           16
     kinetic-energy cutoff     =      70.0000  Ry
     charge density cutoff     =     280.0000  Ry
     scf convergence threshold =      1.0E-06
     mixing beta               =       0.7000
     number of iterations used =            8  plain     mixing
     Exchange-correlation= PBESOL
                           (   1   4  10   8   0   0   0)

     celldm(1)=   9.500000  celldm(2)=   0.000000  celldm(3)=   2.000000
     celldm(4)=   0.000000  celldm(5)=   0.000000  celldm(6)=   0.000000

     crystal axes: (cart. coord. in units of alat)
               a(1) = (   1.000000   0.000000   0.000000 )  
               a(2) = (  -0.500000   0.866025   0.000000 )  
               a(3) = (   0.000000   0.000000   2.000000 )  

     reciprocal axes: (cart. coord. in units 2 pi/alat)
               b(1) = (  1.000000  0.577350 -0.000000 )  
               b(2) = (  0.000000  1.154701  0.000000 )  
               b(3) = (  0.000000 -0.000000  0.500000 )  


     PseudoPot. # 1 for B  read from file:
     ../../pseudo/B.pbesol-n-rrkjus_psl.1.0.0.UPF
     MD5 check sum: a3839a09b1a4e02f2a06a66adc9253fc
     Pseudo is Ultrasoft + core correction, Zval =  3.0
     Generated using &quot;atomic&quot; code by A. Dal Corso  v.6.3MaX
     Using radial grid of 1059 points,  4 beta functions with: 
                l(1) =   0
                l(2) =   0
                l(3) =   1
                l(4) =   1
     Q(r) pseudized with 0 coefficients 


     atomic species   valence    mass     pseudopotential
        B              3.00    10.81100     B ( 1.00)

     24 Sym. Ops., with inversion, found



   Cartesian axes

     site n.     atom                  positions (alat units)
         1           B   tau(   1) = (   0.3333330   0.0000000   0.0000000  )
         2           B   tau(   2) = (   0.6666670   0.0000000   0.0000000  )
         3           B   tau(   3) = (  -0.1666665   0.2886748   0.0000000  )
         4           B   tau(   4) = (   0.1666665   0.2886748   0.0000000  )
         5           B   tau(   5) = (   0.5000005   0.2886748   0.0000000  )
         6           B   tau(   6) = (  -0.3333335   0.5773506   0.0000000  )
         7           B   tau(   7) = (  -0.0000005   0.5773506   0.0000000  )
         8           B   tau(   8) = (   0.3333335   0.5773506   0.0000000  )

     number of k points=    12  Marzari-Vanderbilt smearing, width (Ry)=  0.0500
                       cart. coord. in units 2pi/alat
        k(    1) = (   0.0000000   0.0000000   0.0000000), wk =   0.0246914
        k(    2) = (   0.0000000   0.1283001   0.0000000), wk =   0.1481481
        k(    3) = (   0.0000000   0.2566001   0.0000000), wk =   0.1481481
        k(    4) = (   0.0000000   0.3849002   0.0000000), wk =   0.1481481
        k(    5) = (   0.0000000   0.5132002   0.0000000), wk =   0.1481481
        k(    6) = (   0.1111111   0.1924501   0.0000000), wk =   0.1481481
        k(    7) = (   0.1111111   0.3207501   0.0000000), wk =   0.2962963
        k(    8) = (   0.1111111   0.4490502   0.0000000), wk =   0.2962963
        k(    9) = (   0.1111111   0.5773503   0.0000000), wk =   0.1481481
        k(   10) = (   0.2222222   0.3849002   0.0000000), wk =   0.1481481
        k(   11) = (   0.2222222   0.5132002   0.0000000), wk =   0.2962963
        k(   12) = (   0.3333333   0.5773503   0.0000000), wk =   0.0493827

     Dense  grid:   117515 G-vectors     FFT dimensions: (  54,  54, 108)

     Estimated max dynamical RAM per process >     223.28 MB

     Initial potential from superposition of free atoms

     starting charge      23.9977, renormalised to      24.0000

     negative rho (up, down):  3.125E-05 0.000E+00
     Starting wfcs are   32 randomized atomic wfcs

     total cpu time spent up to now is        6.8 secs

     per-process dynamical memory:   129.7 Mb

     Self-consistent Calculation

     iteration #  1     ecut=    70.00 Ry     beta= 0.70
     Davidson diagonalization with overlap
     ethr =  1.00E-02,  avg # of iterations =  2.1

     negative rho (up, down):  3.576E-04 0.000E+00

     total cpu time spent up to now is       10.2 secs

     total energy              =     -49.85888318 Ry
     estimated scf accuracy    <       0.73846801 Ry

     iteration #  2     ecut=    70.00 Ry     beta= 0.70
     Davidson diagonalization with overlap
     ethr =  3.08E-03,  avg # of iterations =  2.0

     negative rho (up, down):  6.532E-04 0.000E+00

     total cpu time spent up to now is       23.0 secs

     total energy              =     -49.97915777 Ry
     estimated scf accuracy    <       0.01963036 Ry

     iteration #  3     ecut=    70.00 Ry     beta= 0.70
     Davidson diagonalization with overlap
     ethr =  8.18E-05,  avg # of iterations =  5.2

     negative rho (up, down):  7.618E-04 0.000E+00

     total cpu time spent up to now is       30.1 secs

     total energy              =     -49.98425557 Ry
     estimated scf accuracy    <       0.00507046 Ry

     iteration #  4     ecut=    70.00 Ry     beta= 0.70
     Davidson diagonalization with overlap
     ethr =  2.11E-05,  avg # of iterations =  4.0

     negative rho (up, down):  8.764E-04 0.000E+00

     total cpu time spent up to now is       45.8 secs

     total energy              =     -49.98535653 Ry
     estimated scf accuracy    <       0.00017211 Ry

     iteration #  5     ecut=    70.00 Ry     beta= 0.70
     Davidson diagonalization with overlap
     ethr =  7.17E-07,  avg # of iterations =  5.2

     negative rho (up, down):  8.866E-04 0.000E+00

     total cpu time spent up to now is       50.8 secs

     total energy              =     -49.98537732 Ry
     estimated scf accuracy    <       0.00001700 Ry

     iteration #  6     ecut=    70.00 Ry     beta= 0.70
     Davidson diagonalization with overlap
     ethr =  7.08E-08,  avg # of iterations =  2.9

     negative rho (up, down):  8.868E-04 0.000E+00

     total cpu time spent up to now is       63.0 secs

     End of self-consistent calculation

          k = 0.0000 0.0000 0.0000 ( 14727 PWs)   bands (ev):

   -16.2289 -12.0814 -12.0061 -12.0060  -9.7166  -9.7166  -7.6147  -7.0885
    -2.0166  -2.0166  -0.5675  -0.0524  -0.0524   0.2981   0.2981   0.6076

          k = 0.0000 0.1283 0.0000 ( 14714 PWs)   bands (ev):

   -16.1730 -12.7568 -12.0562 -11.3734  -9.7919  -9.5764  -7.3718  -7.0021
    -2.6284  -2.5374  -1.5398  -0.5046   0.1106   0.8796   0.9656   1.2294

          k = 0.0000 0.2566 0.0000 ( 14704 PWs)   bands (ev):

   -16.0088 -13.4446 -12.1676 -10.9540  -9.7130  -9.2070  -6.8930  -6.7458
    -3.6775  -3.3859  -2.7149  -1.0150  -0.1127   1.9517   2.1726   2.2451

          k = 0.0000 0.3849 0.0000 ( 14698 PWs)   bands (ev):

   -15.7507 -14.0665 -12.2750 -10.9279  -9.1998  -8.7247  -6.6523  -6.3346
    -4.6492  -3.9225  -3.7664  -1.3678  -0.3407   3.0126   3.2600   3.3845

          k = 0.0000 0.5132 0.0000 ( 14684 PWs)   bands (ev):

   -15.4667 -14.5369 -12.3372 -10.9915  -8.6399  -8.3272  -6.8538  -5.8526
    -5.2950  -4.5745  -3.9878  -1.5460  -0.4706   3.6359   3.8842   4.0190

          k = 0.1111 0.1925 0.0000 ( 14679 PWs)   bands (ev):

   -16.0628 -13.2549 -12.1813 -10.9415  -9.8640  -9.2845  -7.0202  -6.8306
    -3.4163  -3.1358  -2.3547  -1.1742   0.4750   1.3612   1.5079   1.9773

          k = 0.1111 0.3208 0.0000 ( 14694 PWs)   bands (ev):

   -15.8495 -13.8360 -12.3657 -10.6394  -9.6755  -8.8075  -6.7128  -6.4946
    -4.2537  -3.8082  -3.3253  -1.7391   0.4748   2.1783   2.3075   3.0627

          k = 0.1111 0.4491 0.0000 ( 14680 PWs)   bands (ev):

   -15.5608 -14.3670 -12.5028 -10.6390  -9.1055  -8.3360  -6.9029  -6.0249
    -4.8525  -4.2266  -4.0655  -2.0564   0.3335   3.0514   3.3477   3.6213

          k = 0.1111 0.5774 0.0000 ( 14694 PWs)   bands (ev):

   -15.3589 -14.6528 -12.5517 -10.6639  -8.7289  -8.1178  -7.2047  -5.6658
    -5.1160  -4.7359  -4.0270  -2.1591   0.2759   3.4909   3.5804   4.2733

          k = 0.2222 0.3849 0.0000 ( 14695 PWs)   bands (ev):

   -15.5966 -14.2759 -12.6459 -10.1444  -9.6202  -8.3185  -6.9690  -6.0897
    -4.4431  -4.2416  -3.9942  -2.4360   1.2908   2.2466   2.6672   3.5276

          k = 0.2222 0.5132 0.0000 ( 14689 PWs)   bands (ev):

   -15.2980 -14.6770 -12.8118 -10.0003  -9.1738  -7.9907  -7.5642  -5.5939
    -4.6506  -4.6122  -4.2109  -2.7755   1.4857   3.0303   3.1138   3.6253

          k = 0.3333 0.5774 0.0000 ( 14640 PWs)   bands (ev):

   -14.9923 -14.9922 -12.9370  -9.4085  -9.4085  -7.9843  -7.8654  -5.1062
    -5.1061  -4.3597  -4.3596  -3.0547   2.6069   2.6070   3.2013   3.2013

     the Fermi energy is    -0.5873 ev

!    total energy              =     -49.98538198 Ry
     estimated scf accuracy    <       0.00000069 Ry
     smearing contrib. (-TS)   =       0.00294531 Ry
     internal energy E=F+TS    =     -49.98832729 Ry

     The total energy is F=E-TS. E is the sum of the following terms:
     one-electron contribution =    -180.27509260 Ry
     hartree contribution      =      94.81020907 Ry
     xc contribution           =     -23.33818419 Ry
     ewald contribution        =      58.81474043 Ry

     convergence has been achieved in   6 iterations

     Writing all to output data dir ../../outdir/borophene.save/

     init_run     :      8.78s CPU      6.69s WALL (       1 calls)
     electrons    :    108.81s CPU     56.27s WALL (       1 calls)

     Called by init_run:
     wfcinit      :      7.76s CPU      5.74s WALL (       1 calls)
     potinit      :      0.19s CPU      0.14s WALL (       1 calls)
     hinit0       :      0.70s CPU      0.64s WALL (       1 calls)

     Called by electrons:
     c_bands      :     88.36s CPU     39.93s WALL (       6 calls)
     sum_band     :     18.95s CPU     14.97s WALL (       6 calls)
     v_of_rho     :      1.10s CPU      0.81s WALL (       7 calls)
     newd         :      0.44s CPU      0.59s WALL (       7 calls)
     mix_rho      :      0.13s CPU      0.13s WALL (       6 calls)

     Called by c_bands:
     init_us_2    :      0.89s CPU      0.80s WALL (     156 calls)
     init_us_2:cp :      0.88s CPU      0.80s WALL (     156 calls)
     cegterg      :     86.87s CPU     38.63s WALL (      72 calls)

     Called by *egterg:
     cdiaghg      :      0.19s CPU      0.14s WALL (     329 calls)
     h_psi        :     86.85s CPU     38.53s WALL (     341 calls)
     s_psi        :      1.89s CPU      1.17s WALL (     341 calls)
     g_psi        :      0.23s CPU      0.25s WALL (     257 calls)

     Called by h_psi:
     h_psi:calbec :      2.13s CPU      2.19s WALL (     341 calls)
     vloc_psi     :     82.72s CPU     45.23s WALL (     341 calls)
     add_vuspsi   :      1.70s CPU      1.13s WALL (     341 calls)

     General routines
     calbec       :      2.87s CPU      2.79s WALL (     413 calls)
     fft          :      0.85s CPU      0.74s WALL (      77 calls)
     ffts         :      0.03s CPU      0.03s WALL (       6 calls)
     fftw         :     84.92s CPU     46.76s WALL (    8430 calls)

     Parallel routines

     PWSCF        :   1m57.69s CPU   1m 3.18s WALL


   This run was terminated on:  11:41:38   2Jul2025            

=------------------------------------------------------------------------------=
   JOB DONE.
=------------------------------------------------------------------------------=
