
     Program PWSCF v.7.2 starts on  2Jul2025 at 11:33:51 

     This program is part of the open-source Quantum ESPRESSO suite
     for quantum simulation of materials; please cite
         "P. Giannozzi et al., J. Phys.:Condens. Matter 21 395502 (2009);
         "P. Giannozzi et al., J. Phys.:Condens. Matter 29 465901 (2017);
         "P. Giannozzi et al., J. Chem. Phys. 152 154105 (2020);
          URL http://www.quantum-espresso.org", 
     in publications or presentations arising from this work. More details at
     http://www.quantum-espresso.org/quote

     Parallel version (MPI & OpenMP), running on       2 processor cores
     Number of MPI processes:                 1
     Threads/MPI process:                     2

     MPI processes distributed on     1 nodes
     402 MiB available memory on the printing compute node when the environment starts

     Reading input from ../degauss/alpha_0.01.in

     Current dimensions of program PWSCF are:
     Max number of different atomic species (ntypx) = 10
     Max number of k-points (npk) =  40000
     Max angular momentum in pseudopotentials (lmaxx) =  4
     file B.pbesol-n-rrkjus_psl.1.0.0.UPF: wavefunction(s)  2S renormalized

     IMPORTANT: XC functional enforced from input :
     Exchange-correlation= PBESOL
                           (   1   4  10   8   0   0   0)
     Any further DFT definition will be discarded
     Please, verify this is what you really want


     Subspace diagonalization in iterative solution of the eigenvalue problem:
     a serial algorithm will be used


     G-vector sticks info
     --------------------
     sticks:   dense  smooth     PW     G-vecs:    dense   smooth      PW
     Sum        1735    1735    499               117515   117515   17051

     Using Slab Decomposition



     bravais-lattice index     =            4
     lattice parameter (alat)  =       9.5000  a.u.
     unit-cell volume          =    1485.0171 (a.u.)^3
     number of atoms/cell      =            8
     number of atomic types    =            1
     number of electrons       =        24.00
     number of Kohn-Sham states=           16
     kinetic-energy cutoff     =      70.0000  Ry
     charge density cutoff     =     280.0000  Ry
     scf convergence threshold =      1.0E-06
     mixing beta               =       0.7000
     number of iterations used =            8  plain     mixing
     Exchange-correlation= PBESOL
                           (   1   4  10   8   0   0   0)

     celldm(1)=   9.500000  celldm(2)=   0.000000  celldm(3)=   2.000000
     celldm(4)=   0.000000  celldm(5)=   0.000000  celldm(6)=   0.000000

     crystal axes: (cart. coord. in units of alat)
               a(1) = (   1.000000   0.000000   0.000000 )  
               a(2) = (  -0.500000   0.866025   0.000000 )  
               a(3) = (   0.000000   0.000000   2.000000 )  

     reciprocal axes: (cart. coord. in units 2 pi/alat)
               b(1) = (  1.000000  0.577350 -0.000000 )  
               b(2) = (  0.000000  1.154701  0.000000 )  
               b(3) = (  0.000000 -0.000000  0.500000 )  


     PseudoPot. # 1 for B  read from file:
     ../../pseudo/B.pbesol-n-rrkjus_psl.1.0.0.UPF
     MD5 check sum: a3839a09b1a4e02f2a06a66adc9253fc
     Pseudo is Ultrasoft + core correction, Zval =  3.0
     Generated using &quot;atomic&quot; code by A. Dal Corso  v.6.3MaX
     Using radial grid of 1059 points,  4 beta functions with: 
                l(1) =   0
                l(2) =   0
                l(3) =   1
                l(4) =   1
     Q(r) pseudized with 0 coefficients 


     atomic species   valence    mass     pseudopotential
        B              3.00    10.81100     B ( 1.00)

     24 Sym. Ops., with inversion, found



   Cartesian axes

     site n.     atom                  positions (alat units)
         1           B   tau(   1) = (   0.3333330   0.0000000   0.0000000  )
         2           B   tau(   2) = (   0.6666670   0.0000000   0.0000000  )
         3           B   tau(   3) = (  -0.1666665   0.2886748   0.0000000  )
         4           B   tau(   4) = (   0.1666665   0.2886748   0.0000000  )
         5           B   tau(   5) = (   0.5000005   0.2886748   0.0000000  )
         6           B   tau(   6) = (  -0.3333335   0.5773506   0.0000000  )
         7           B   tau(   7) = (  -0.0000005   0.5773506   0.0000000  )
         8           B   tau(   8) = (   0.3333335   0.5773506   0.0000000  )

     number of k points=    12  Marzari-Vanderbilt smearing, width (Ry)=  0.0100
                       cart. coord. in units 2pi/alat
        k(    1) = (   0.0000000   0.0000000   0.0000000), wk =   0.0246914
        k(    2) = (   0.0000000   0.1283001   0.0000000), wk =   0.1481481
        k(    3) = (   0.0000000   0.2566001   0.0000000), wk =   0.1481481
        k(    4) = (   0.0000000   0.3849002   0.0000000), wk =   0.1481481
        k(    5) = (   0.0000000   0.5132002   0.0000000), wk =   0.1481481
        k(    6) = (   0.1111111   0.1924501   0.0000000), wk =   0.1481481
        k(    7) = (   0.1111111   0.3207501   0.0000000), wk =   0.2962963
        k(    8) = (   0.1111111   0.4490502   0.0000000), wk =   0.2962963
        k(    9) = (   0.1111111   0.5773503   0.0000000), wk =   0.1481481
        k(   10) = (   0.2222222   0.3849002   0.0000000), wk =   0.1481481
        k(   11) = (   0.2222222   0.5132002   0.0000000), wk =   0.2962963
        k(   12) = (   0.3333333   0.5773503   0.0000000), wk =   0.0493827

     Dense  grid:   117515 G-vectors     FFT dimensions: (  54,  54, 108)

     Estimated max dynamical RAM per process >     223.28 MB

     Initial potential from superposition of free atoms

     starting charge      23.9977, renormalised to      24.0000

     negative rho (up, down):  3.125E-05 0.000E+00
     Starting wfcs are   32 randomized atomic wfcs

     total cpu time spent up to now is        6.0 secs

     per-process dynamical memory:   129.7 Mb

     Self-consistent Calculation

     iteration #  1     ecut=    70.00 Ry     beta= 0.70
     Davidson diagonalization with overlap
     ethr =  1.00E-02,  avg # of iterations =  2.1

     negative rho (up, down):  3.577E-04 0.000E+00

     total cpu time spent up to now is       18.0 secs

     total energy              =     -49.85798044 Ry
     estimated scf accuracy    <       0.73960325 Ry

     iteration #  2     ecut=    70.00 Ry     beta= 0.70
     Davidson diagonalization with overlap
     ethr =  3.08E-03,  avg # of iterations =  2.0

     negative rho (up, down):  6.533E-04 0.000E+00

     total cpu time spent up to now is       79.6 secs

     total energy              =     -49.97822891 Ry
     estimated scf accuracy    <       0.02042949 Ry

     iteration #  3     ecut=    70.00 Ry     beta= 0.70
     Davidson diagonalization with overlap
     ethr =  8.51E-05,  avg # of iterations =  5.1

     negative rho (up, down):  7.604E-04 0.000E+00

     total cpu time spent up to now is       94.7 secs

     total energy              =     -49.98364110 Ry
     estimated scf accuracy    <       0.00568429 Ry

     iteration #  4     ecut=    70.00 Ry     beta= 0.70
     Davidson diagonalization with overlap
     ethr =  2.37E-05,  avg # of iterations =  4.0

     negative rho (up, down):  8.760E-04 0.000E+00

     total cpu time spent up to now is       95.5 secs

     total energy              =     -49.98482219 Ry
     estimated scf accuracy    <       0.00017079 Ry

     iteration #  5     ecut=    70.00 Ry     beta= 0.70
     Davidson diagonalization with overlap
     ethr =  7.12E-07,  avg # of iterations =  5.3

     negative rho (up, down):  8.874E-04 0.000E+00

     total cpu time spent up to now is      111.0 secs

     total energy              =     -49.98484519 Ry
     estimated scf accuracy    <       0.00002294 Ry

     iteration #  6     ecut=    70.00 Ry     beta= 0.70
     Davidson diagonalization with overlap
     ethr =  9.56E-08,  avg # of iterations =  2.2

     negative rho (up, down):  8.878E-04 0.000E+00

     total cpu time spent up to now is      110.5 secs

     total energy              =     -49.98485175 Ry
     estimated scf accuracy    <       0.00000139 Ry

     iteration #  7     ecut=    70.00 Ry     beta= 0.70
     Davidson diagonalization with overlap
     ethr =  5.78E-09,  avg # of iterations =  3.2

     negative rho (up, down):  8.878E-04 0.000E+00

     total cpu time spent up to now is      122.9 secs

     End of self-consistent calculation

          k = 0.0000 0.0000 0.0000 ( 14727 PWs)   bands (ev):

   -16.2269 -12.0790 -12.0036 -12.0036  -9.7180  -9.7180  -7.6196  -7.0868
    -2.0177  -2.0177  -0.5624  -0.0514  -0.0514   0.2976   0.2976   0.6062

          k = 0.0000 0.1283 0.0000 ( 14714 PWs)   bands (ev):

   -16.1711 -12.7544 -12.0539 -11.3713  -9.7935  -9.5776  -7.3762  -7.0004
    -2.6296  -2.5386  -1.5369  -0.5043   0.1114   0.8790   0.9651   1.2286

          k = 0.0000 0.2566 0.0000 ( 14704 PWs)   bands (ev):

   -16.0067 -13.4422 -12.1656 -10.9532  -9.7137  -9.2077  -6.8963  -6.7441
    -3.6789  -3.3876  -2.7126  -1.0150  -0.1121   1.9513   2.1723   2.2446

          k = 0.0000 0.3849 0.0000 ( 14698 PWs)   bands (ev):

   -15.7485 -14.0643 -12.2732 -10.9286  -9.1992  -8.7249  -6.6543  -6.3328
    -4.6511  -3.9255  -3.7645  -1.3678  -0.3402   3.0126   3.2605   3.3843

          k = 0.0000 0.5132 0.0000 ( 14684 PWs)   bands (ev):

   -15.4644 -14.5349 -12.3355 -10.9928  -8.6386  -8.3268  -6.8550  -5.8505
    -5.2974  -4.5730  -3.9917  -1.5461  -0.4701   3.6357   3.8845   4.0199

          k = 0.1111 0.1925 0.0000 ( 14679 PWs)   bands (ev):

   -16.0608 -13.2524 -12.1794 -10.9397  -9.8657  -9.2852  -7.0239  -6.8288
    -3.4178  -3.1371  -2.3521  -1.1745   0.4758   1.3611   1.5074   1.9769

          k = 0.1111 0.3208 0.0000 ( 14694 PWs)   bands (ev):

   -15.8474 -13.8337 -12.3644 -10.6388  -9.6761  -8.8075  -6.7152  -6.4928
    -4.2559  -3.8102  -3.3230  -1.7394   0.4754   2.1786   2.3072   3.0632

          k = 0.1111 0.4491 0.0000 ( 14680 PWs)   bands (ev):

   -15.5586 -14.3648 -12.5017 -10.6394  -9.1050  -8.3355  -6.9042  -6.0229
    -4.8549  -4.2247  -4.0689  -2.0567   0.3341   3.0514   3.3482   3.6219

          k = 0.1111 0.5774 0.0000 ( 14694 PWs)   bands (ev):

   -15.3565 -14.6507 -12.5508 -10.6646  -8.7278  -8.1170  -7.2061  -5.6636
    -5.1184  -4.7343  -4.0309  -2.1593   0.2765   3.4913   3.5799   4.2738

          k = 0.2222 0.3849 0.0000 ( 14695 PWs)   bands (ev):

   -15.5944 -14.2735 -12.6453 -10.1434  -9.6209  -8.3180  -6.9704  -6.0878
    -4.4466  -4.2436  -3.9919  -2.4366   1.2916   2.2470   2.6670   3.5282

          k = 0.2222 0.5132 0.0000 ( 14689 PWs)   bands (ev):

   -15.2957 -14.6746 -12.8116 -10.0000  -9.1733  -7.9898  -7.5658  -5.5917
    -4.6485  -4.6148  -4.2143  -2.7762   1.4864   3.0301   3.1144   3.6245

          k = 0.3333 0.5774 0.0000 ( 14640 PWs)   bands (ev):

   -14.9899 -14.9898 -12.9370  -9.4077  -9.4076  -7.9865  -7.8644  -5.1039
    -5.1039  -4.3627  -4.3627  -3.0557   2.6078   2.6078   3.2007   3.2007

     the Fermi energy is    -0.4566 ev

!    total energy              =     -49.98485217 Ry
     estimated scf accuracy    <       0.00000005 Ry
     smearing contrib. (-TS)   =      -0.00050728 Ry
     internal energy E=F+TS    =     -49.98434489 Ry

     The total energy is F=E-TS. E is the sum of the following terms:
     one-electron contribution =    -180.27209041 Ry
     hartree contribution      =      94.81127736 Ry
     xc contribution           =     -23.33827228 Ry
     ewald contribution        =      58.81474043 Ry

     convergence has been achieved in   7 iterations

     Writing all to output data dir ../../outdir/borophene.save/

     init_run     :      8.39s CPU      5.91s WALL (       1 calls)
     electrons    :    121.29s CPU    116.95s WALL (       1 calls)

     Called by init_run:
     wfcinit      :      7.38s CPU      5.00s WALL (       1 calls)
     potinit      :      0.17s CPU      0.13s WALL (       1 calls)
     hinit0       :      0.69s CPU      0.61s WALL (       1 calls)

     Called by electrons:
     c_bands      :     98.35s CPU    110.87s WALL (       7 calls)
     sum_band     :     21.14s CPU      4.53s WALL (       7 calls)
     v_of_rho     :      1.30s CPU      0.94s WALL (       8 calls)
     newd         :      0.49s CPU      0.62s WALL (       8 calls)
     mix_rho      :      0.17s CPU      0.15s WALL (       7 calls)

     Called by c_bands:
     init_us_2    :      0.92s CPU      0.88s WALL (     180 calls)
     init_us_2:cp :      0.91s CPU      0.88s WALL (     180 calls)
     cegterg      :     96.70s CPU    109.47s WALL (      84 calls)

     Called by *egterg:
     cdiaghg      :      0.19s CPU      0.13s WALL (     371 calls)
     h_psi        :     95.17s CPU    108.55s WALL (     383 calls)
     s_psi        :      1.96s CPU      1.18s WALL (     383 calls)
     g_psi        :      0.29s CPU      0.26s WALL (     287 calls)

     Called by h_psi:
     h_psi:calbec :      2.46s CPU      2.15s WALL (     383 calls)
     vloc_psi     :     90.52s CPU    104.97s WALL (     383 calls)
     add_vuspsi   :      1.88s CPU      1.10s WALL (     383 calls)

     General routines
     calbec       :      3.24s CPU      2.81s WALL (     467 calls)
     fft          :      0.94s CPU      0.79s WALL (      88 calls)
     ffts         :      0.05s CPU      0.04s WALL (       7 calls)
     fftw         :     93.58s CPU    107.63s WALL (    9564 calls)

     Parallel routines

     PWSCF        :   2m 9.80s CPU   2m 3.09s WALL


   This run was terminated on:  11:35:54   2Jul2025            

=------------------------------------------------------------------------------=
   JOB DONE.
=------------------------------------------------------------------------------=
