
     Program PWSCF v.7.2 starts on  2Jul2025 at 11:38:46 

     This program is part of the open-source Quantum ESPRESSO suite
     for quantum simulation of materials; please cite
         "P. Giannozzi et al., J. Phys.:Condens. Matter 21 395502 (2009);
         "P. Giannozzi et al., J. Phys.:Condens. Matter 29 465901 (2017);
         "P. Giannozzi et al., J. Chem. Phys. 152 154105 (2020);
          URL http://www.quantum-espresso.org", 
     in publications or presentations arising from this work. More details at
     http://www.quantum-espresso.org/quote

     Parallel version (MPI & OpenMP), running on       2 processor cores
     Number of MPI processes:                 1
     Threads/MPI process:                     2

     MPI processes distributed on     1 nodes
     397 MiB available memory on the printing compute node when the environment starts

     Reading input from ../degauss/alpha_0.04.in

     Current dimensions of program PWSCF are:
     Max number of different atomic species (ntypx) = 10
     Max number of k-points (npk) =  40000
     Max angular momentum in pseudopotentials (lmaxx) =  4
     file B.pbesol-n-rrkjus_psl.1.0.0.UPF: wavefunction(s)  2S renormalized

     IMPORTANT: XC functional enforced from input :
     Exchange-correlation= PBESOL
                           (   1   4  10   8   0   0   0)
     Any further DFT definition will be discarded
     Please, verify this is what you really want


     Subspace diagonalization in iterative solution of the eigenvalue problem:
     a serial algorithm will be used


     G-vector sticks info
     --------------------
     sticks:   dense  smooth     PW     G-vecs:    dense   smooth      PW
     Sum        1735    1735    499               117515   117515   17051

     Using Slab Decomposition



     bravais-lattice index     =            4
     lattice parameter (alat)  =       9.5000  a.u.
     unit-cell volume          =    1485.0171 (a.u.)^3
     number of atoms/cell      =            8
     number of atomic types    =            1
     number of electrons       =        24.00
     number of Kohn-Sham states=           16
     kinetic-energy cutoff     =      70.0000  Ry
     charge density cutoff     =     280.0000  Ry
     scf convergence threshold =      1.0E-06
     mixing beta               =       0.7000
     number of iterations used =            8  plain     mixing
     Exchange-correlation= PBESOL
                           (   1   4  10   8   0   0   0)

     celldm(1)=   9.500000  celldm(2)=   0.000000  celldm(3)=   2.000000
     celldm(4)=   0.000000  celldm(5)=   0.000000  celldm(6)=   0.000000

     crystal axes: (cart. coord. in units of alat)
               a(1) = (   1.000000   0.000000   0.000000 )  
               a(2) = (  -0.500000   0.866025   0.000000 )  
               a(3) = (   0.000000   0.000000   2.000000 )  

     reciprocal axes: (cart. coord. in units 2 pi/alat)
               b(1) = (  1.000000  0.577350 -0.000000 )  
               b(2) = (  0.000000  1.154701  0.000000 )  
               b(3) = (  0.000000 -0.000000  0.500000 )  


     PseudoPot. # 1 for B  read from file:
     ../../pseudo/B.pbesol-n-rrkjus_psl.1.0.0.UPF
     MD5 check sum: a3839a09b1a4e02f2a06a66adc9253fc
     Pseudo is Ultrasoft + core correction, Zval =  3.0
     Generated using &quot;atomic&quot; code by A. Dal Corso  v.6.3MaX
     Using radial grid of 1059 points,  4 beta functions with: 
                l(1) =   0
                l(2) =   0
                l(3) =   1
                l(4) =   1
     Q(r) pseudized with 0 coefficients 


     atomic species   valence    mass     pseudopotential
        B              3.00    10.81100     B ( 1.00)

     24 Sym. Ops., with inversion, found



   Cartesian axes

     site n.     atom                  positions (alat units)
         1           B   tau(   1) = (   0.3333330   0.0000000   0.0000000  )
         2           B   tau(   2) = (   0.6666670   0.0000000   0.0000000  )
         3           B   tau(   3) = (  -0.1666665   0.2886748   0.0000000  )
         4           B   tau(   4) = (   0.1666665   0.2886748   0.0000000  )
         5           B   tau(   5) = (   0.5000005   0.2886748   0.0000000  )
         6           B   tau(   6) = (  -0.3333335   0.5773506   0.0000000  )
         7           B   tau(   7) = (  -0.0000005   0.5773506   0.0000000  )
         8           B   tau(   8) = (   0.3333335   0.5773506   0.0000000  )

     number of k points=    12  Marzari-Vanderbilt smearing, width (Ry)=  0.0400
                       cart. coord. in units 2pi/alat
        k(    1) = (   0.0000000   0.0000000   0.0000000), wk =   0.0246914
        k(    2) = (   0.0000000   0.1283001   0.0000000), wk =   0.1481481
        k(    3) = (   0.0000000   0.2566001   0.0000000), wk =   0.1481481
        k(    4) = (   0.0000000   0.3849002   0.0000000), wk =   0.1481481
        k(    5) = (   0.0000000   0.5132002   0.0000000), wk =   0.1481481
        k(    6) = (   0.1111111   0.1924501   0.0000000), wk =   0.1481481
        k(    7) = (   0.1111111   0.3207501   0.0000000), wk =   0.2962963
        k(    8) = (   0.1111111   0.4490502   0.0000000), wk =   0.2962963
        k(    9) = (   0.1111111   0.5773503   0.0000000), wk =   0.1481481
        k(   10) = (   0.2222222   0.3849002   0.0000000), wk =   0.1481481
        k(   11) = (   0.2222222   0.5132002   0.0000000), wk =   0.2962963
        k(   12) = (   0.3333333   0.5773503   0.0000000), wk =   0.0493827

     Dense  grid:   117515 G-vectors     FFT dimensions: (  54,  54, 108)

     Estimated max dynamical RAM per process >     223.28 MB

     Initial potential from superposition of free atoms

     starting charge      23.9977, renormalised to      24.0000

     negative rho (up, down):  3.125E-05 0.000E+00
     Starting wfcs are   32 randomized atomic wfcs

     total cpu time spent up to now is       -5.5 secs

     per-process dynamical memory:   129.9 Mb

     Self-consistent Calculation

     iteration #  1     ecut=    70.00 Ry     beta= 0.70
     Davidson diagonalization with overlap
     ethr =  1.00E-02,  avg # of iterations =  2.1

     negative rho (up, down):  3.576E-04 0.000E+00

     total cpu time spent up to now is        6.8 secs

     total energy              =     -49.85908010 Ry
     estimated scf accuracy    <       0.73885873 Ry

     iteration #  2     ecut=    70.00 Ry     beta= 0.70
     Davidson diagonalization with overlap
     ethr =  3.08E-03,  avg # of iterations =  2.0

     negative rho (up, down):  6.531E-04 0.000E+00

     total cpu time spent up to now is       18.7 secs

     total energy              =     -49.97963518 Ry
     estimated scf accuracy    <       0.01954827 Ry

     iteration #  3     ecut=    70.00 Ry     beta= 0.70
     Davidson diagonalization with overlap
     ethr =  8.15E-05,  avg # of iterations =  5.3

     negative rho (up, down):  7.618E-04 0.000E+00

     total cpu time spent up to now is       22.4 secs

     total energy              =     -49.98469789 Ry
     estimated scf accuracy    <       0.00501887 Ry

     iteration #  4     ecut=    70.00 Ry     beta= 0.70
     Davidson diagonalization with overlap
     ethr =  2.09E-05,  avg # of iterations =  4.0

     negative rho (up, down):  8.765E-04 0.000E+00

     total cpu time spent up to now is       36.0 secs

     total energy              =     -49.98579072 Ry
     estimated scf accuracy    <       0.00017239 Ry

     iteration #  5     ecut=    70.00 Ry     beta= 0.70
     Davidson diagonalization with overlap
     ethr =  7.18E-07,  avg # of iterations =  4.9

     negative rho (up, down):  8.869E-04 0.000E+00

     total cpu time spent up to now is       95.4 secs

     total energy              =     -49.98581124 Ry
     estimated scf accuracy    <       0.00001611 Ry

     iteration #  6     ecut=    70.00 Ry     beta= 0.70
     Davidson diagonalization with overlap
     ethr =  6.71E-08,  avg # of iterations =  2.9

     negative rho (up, down):  8.871E-04 0.000E+00

     total cpu time spent up to now is      108.0 secs

     End of self-consistent calculation

          k = 0.0000 0.0000 0.0000 ( 14727 PWs)   bands (ev):

   -16.2296 -12.0827 -12.0066 -12.0065  -9.7176  -9.7176  -7.6157  -7.0888
    -2.0171  -2.0170  -0.5689  -0.0522  -0.0522   0.2966   0.2966   0.6076

          k = 0.0000 0.1283 0.0000 ( 14714 PWs)   bands (ev):

   -16.1737 -12.7577 -12.0567 -11.3744  -9.7929  -9.5775  -7.3728  -7.0023
    -2.6290  -2.5380  -1.5404  -0.5044   0.1102   0.8783   0.9643   1.2294

          k = 0.0000 0.2566 0.0000 ( 14704 PWs)   bands (ev):

   -16.0095 -13.4454 -12.1681 -10.9551  -9.7140  -9.2080  -6.8940  -6.7461
    -3.6781  -3.3866  -2.7153  -1.0149  -0.1131   1.9506   2.1714   2.2453

          k = 0.0000 0.3849 0.0000 ( 14698 PWs)   bands (ev):

   -15.7514 -14.0673 -12.2756 -10.9290  -9.2008  -8.7258  -6.6533  -6.3349
    -4.6498  -3.9233  -3.7667  -1.3677  -0.3412   3.0117   3.2602   3.3834

          k = 0.0000 0.5132 0.0000 ( 14684 PWs)   bands (ev):

   -15.4674 -14.5377 -12.3378 -10.9927  -8.6411  -8.3283  -6.8546  -5.8529
    -5.2956  -4.5748  -3.9886  -1.5459  -0.4711   3.6352   3.8840   4.0185

          k = 0.1111 0.1925 0.0000 ( 14679 PWs)   bands (ev):

   -16.0635 -13.2557 -12.1818 -10.9425  -9.8651  -9.2856  -7.0213  -6.8308
    -3.4169  -3.1364  -2.3552  -1.1741   0.4745   1.3613   1.5068   1.9761

          k = 0.1111 0.3208 0.0000 ( 14694 PWs)   bands (ev):

   -15.8502 -13.8368 -12.3663 -10.6405  -9.6765  -8.8085  -6.7138  -6.4949
    -4.2543  -3.8089  -3.3257  -1.7391   0.4744   2.1782   2.3064   3.0630

          k = 0.1111 0.4491 0.0000 ( 14680 PWs)   bands (ev):

   -15.5615 -14.3678 -12.5034 -10.6400  -9.1066  -8.3371  -6.9037  -6.0252
    -4.8531  -4.2269  -4.0663  -2.0564   0.3332   3.0505   3.3475   3.6215

          k = 0.1111 0.5774 0.0000 ( 14694 PWs)   bands (ev):

   -15.3596 -14.6535 -12.5523 -10.6650  -8.7301  -8.1190  -7.2055  -5.6661
    -5.1165  -4.7362  -4.0278  -2.1591   0.2756   3.4900   3.5796   4.2733

          k = 0.2222 0.3849 0.0000 ( 14695 PWs)   bands (ev):

   -15.5973 -14.2767 -12.6466 -10.1454  -9.6212  -8.3197  -6.9699  -6.0900
    -4.4438  -4.2422  -3.9946  -2.4359   1.2903   2.2466   2.6662   3.5279

          k = 0.2222 0.5132 0.0000 ( 14689 PWs)   bands (ev):

   -15.2987 -14.6777 -12.8125 -10.0014  -9.1749  -7.9919  -7.5650  -5.5942
    -4.6509  -4.6128  -4.2116  -2.7755   1.4853   3.0294   3.1133   3.6244

          k = 0.3333 0.5774 0.0000 ( 14640 PWs)   bands (ev):

   -14.9930 -14.9929 -12.9376  -9.4096  -9.4096  -7.9849  -7.8666  -5.1065
    -5.1065  -4.3603  -4.3603  -3.0546   2.6064   2.6065   3.2003   3.2003

     the Fermi energy is    -0.5415 ev

!    total energy              =     -49.98581569 Ry
     estimated scf accuracy    <       0.00000063 Ry
     smearing contrib. (-TS)   =       0.00101062 Ry
     internal energy E=F+TS    =     -49.98682632 Ry

     The total energy is F=E-TS. E is the sum of the following terms:
     one-electron contribution =    -180.27248307 Ry
     hartree contribution      =      94.80893675 Ry
     xc contribution           =     -23.33802044 Ry
     ewald contribution        =      58.81474043 Ry

     convergence has been achieved in   6 iterations

     Writing all to output data dir ../../outdir/borophene.save/

     init_run     :      8.24s CPU     -5.53s WALL (       1 calls)
     electrons    :    106.03s CPU    113.51s WALL (       1 calls)

     Called by init_run:
     wfcinit      :      7.23s CPU     -6.49s WALL (       1 calls)
     potinit      :      0.20s CPU      0.14s WALL (       1 calls)
     hinit0       :      0.68s CPU      0.64s WALL (       1 calls)

     Called by electrons:
     c_bands      :     86.29s CPU     41.77s WALL (       6 calls)
     sum_band     :     18.24s CPU     70.41s WALL (       6 calls)
     v_of_rho     :      1.10s CPU      0.83s WALL (       7 calls)
     newd         :      0.47s CPU      0.56s WALL (       7 calls)
     mix_rho      :      0.13s CPU      0.12s WALL (       6 calls)

     Called by c_bands:
     init_us_2    :      0.86s CPU      0.77s WALL (     156 calls)
     init_us_2:cp :      0.86s CPU      0.77s WALL (     156 calls)
     cegterg      :     84.80s CPU     40.55s WALL (      72 calls)

     Called by *egterg:
     cdiaghg      :      0.17s CPU      0.11s WALL (     327 calls)
     h_psi        :     84.42s CPU     28.91s WALL (     339 calls)
     s_psi        :      1.79s CPU      1.05s WALL (     339 calls)
     g_psi        :      0.26s CPU      0.23s WALL (     255 calls)

     Called by h_psi:
     h_psi:calbec :      2.09s CPU      1.92s WALL (     339 calls)
     vloc_psi     :     80.44s CPU     25.72s WALL (     339 calls)
     add_vuspsi   :      1.62s CPU      0.97s WALL (     339 calls)

     General routines
     calbec       :      2.79s CPU      2.49s WALL (     411 calls)
     fft          :      0.86s CPU      0.76s WALL (      77 calls)
     ffts         :      0.03s CPU      0.03s WALL (       6 calls)
     fftw         :     82.98s CPU     94.58s WALL (    8416 calls)

     Parallel routines

     PWSCF        :   1m54.37s CPU   1m48.24s WALL


   This run was terminated on:  11:40:35   2Jul2025            

=------------------------------------------------------------------------------=
   JOB DONE.
=------------------------------------------------------------------------------=
