
     Program PWSCF v.7.2 starts on  2Jul2025 at 11:17:51 

     This program is part of the open-source Quantum ESPRESSO suite
     for quantum simulation of materials; please cite
         "P. Giannozzi et al., J. Phys.:Condens. Matter 21 395502 (2009);
         "P. Giannozzi et al., J. Phys.:Condens. Matter 29 465901 (2017);
         "P. Giannozzi et al., J. Chem. Phys. 152 154105 (2020);
          URL http://www.quantum-espresso.org", 
     in publications or presentations arising from this work. More details at
     http://www.quantum-espresso.org/quote

     Parallel version (MPI & OpenMP), running on       2 processor cores
     Number of MPI processes:                 1
     Threads/MPI process:                     2

     MPI processes distributed on     1 nodes
     370 MiB available memory on the printing compute node when the environment starts

     Reading input from ../k/alpha_7.in

     Current dimensions of program PWSCF are:
     Max number of different atomic species (ntypx) = 10
     Max number of k-points (npk) =  40000
     Max angular momentum in pseudopotentials (lmaxx) =  4
     file B.pbesol-n-rrkjus_psl.1.0.0.UPF: wavefunction(s)  2S renormalized

     IMPORTANT: XC functional enforced from input :
     Exchange-correlation= PBESOL
                           (   1   4  10   8   0   0   0)
     Any further DFT definition will be discarded
     Please, verify this is what you really want


     Subspace diagonalization in iterative solution of the eigenvalue problem:
     a serial algorithm will be used


     G-vector sticks info
     --------------------
     sticks:   dense  smooth     PW     G-vecs:    dense   smooth      PW
     Sum        1735    1735    475               117515   117515   16799

     Using Slab Decomposition



     bravais-lattice index     =            4
     lattice parameter (alat)  =       9.5000  a.u.
     unit-cell volume          =    1485.0171 (a.u.)^3
     number of atoms/cell      =            8
     number of atomic types    =            1
     number of electrons       =        24.00
     number of Kohn-Sham states=           16
     kinetic-energy cutoff     =      70.0000  Ry
     charge density cutoff     =     280.0000  Ry
     scf convergence threshold =      1.0E-06
     mixing beta               =       0.7000
     number of iterations used =            8  plain     mixing
     Exchange-correlation= PBESOL
                           (   1   4  10   8   0   0   0)

     celldm(1)=   9.500000  celldm(2)=   0.000000  celldm(3)=   2.000000
     celldm(4)=   0.000000  celldm(5)=   0.000000  celldm(6)=   0.000000

     crystal axes: (cart. coord. in units of alat)
               a(1) = (   1.000000   0.000000   0.000000 )  
               a(2) = (  -0.500000   0.866025   0.000000 )  
               a(3) = (   0.000000   0.000000   2.000000 )  

     reciprocal axes: (cart. coord. in units 2 pi/alat)
               b(1) = (  1.000000  0.577350 -0.000000 )  
               b(2) = (  0.000000  1.154701  0.000000 )  
               b(3) = (  0.000000 -0.000000  0.500000 )  


     PseudoPot. # 1 for B  read from file:
     ../../pseudo/B.pbesol-n-rrkjus_psl.1.0.0.UPF
     MD5 check sum: a3839a09b1a4e02f2a06a66adc9253fc
     Pseudo is Ultrasoft + core correction, Zval =  3.0
     Generated using &quot;atomic&quot; code by A. Dal Corso  v.6.3MaX
     Using radial grid of 1059 points,  4 beta functions with: 
                l(1) =   0
                l(2) =   0
                l(3) =   1
                l(4) =   1
     Q(r) pseudized with 0 coefficients 


     atomic species   valence    mass     pseudopotential
        B              3.00    10.81100     B ( 1.00)

     24 Sym. Ops., with inversion, found



   Cartesian axes

     site n.     atom                  positions (alat units)
         1           B   tau(   1) = (   0.3333330   0.0000000   0.0000000  )
         2           B   tau(   2) = (   0.6666670   0.0000000   0.0000000  )
         3           B   tau(   3) = (  -0.1666665   0.2886748   0.0000000  )
         4           B   tau(   4) = (   0.1666665   0.2886748   0.0000000  )
         5           B   tau(   5) = (   0.5000005   0.2886748   0.0000000  )
         6           B   tau(   6) = (  -0.3333335   0.5773506   0.0000000  )
         7           B   tau(   7) = (  -0.0000005   0.5773506   0.0000000  )
         8           B   tau(   8) = (   0.3333335   0.5773506   0.0000000  )

     number of k points=     8  Marzari-Vanderbilt smearing, width (Ry)=  0.0200
                       cart. coord. in units 2pi/alat
        k(    1) = (   0.0000000   0.0000000   0.0000000), wk =   0.0408163
        k(    2) = (   0.0000000   0.1649572   0.0000000), wk =   0.2448980
        k(    3) = (   0.0000000   0.3299144   0.0000000), wk =   0.2448980
        k(    4) = (   0.0000000   0.4948717   0.0000000), wk =   0.2448980
        k(    5) = (   0.1428571   0.2474358   0.0000000), wk =   0.2448980
        k(    6) = (   0.1428571   0.4123930   0.0000000), wk =   0.4897959
        k(    7) = (   0.1428571   0.5773503   0.0000000), wk =   0.2448980
        k(    8) = (   0.2857143   0.4948717   0.0000000), wk =   0.2448980

     Dense  grid:   117515 G-vectors     FFT dimensions: (  54,  54, 108)

     Estimated max dynamical RAM per process >     208.94 MB

     Initial potential from superposition of free atoms

     starting charge      23.9977, renormalised to      24.0000

     negative rho (up, down):  3.125E-05 0.000E+00
     Starting wfcs are   32 randomized atomic wfcs

     total cpu time spent up to now is        4.4 secs

     per-process dynamical memory:   115.0 Mb

     Self-consistent Calculation

     iteration #  1     ecut=    70.00 Ry     beta= 0.70
     Davidson diagonalization with overlap
     ethr =  1.00E-02,  avg # of iterations =  2.1

     negative rho (up, down):  3.576E-04 0.000E+00

     total cpu time spent up to now is        1.8 secs

     total energy              =     -49.85768358 Ry
     estimated scf accuracy    <       0.74003784 Ry

     iteration #  2     ecut=    70.00 Ry     beta= 0.70
     Davidson diagonalization with overlap
     ethr =  3.08E-03,  avg # of iterations =  2.0

     negative rho (up, down):  6.531E-04 0.000E+00

     total cpu time spent up to now is        9.5 secs

     total energy              =     -49.97751946 Ry
     estimated scf accuracy    <       0.02008888 Ry

     iteration #  3     ecut=    70.00 Ry     beta= 0.70
     Davidson diagonalization with overlap
     ethr =  8.37E-05,  avg # of iterations =  4.6

     negative rho (up, down):  7.596E-04 0.000E+00

     total cpu time spent up to now is       18.3 secs

     total energy              =     -49.98269709 Ry
     estimated scf accuracy    <       0.00583706 Ry

     iteration #  4     ecut=    70.00 Ry     beta= 0.70
     Davidson diagonalization with overlap
     ethr =  2.43E-05,  avg # of iterations =  3.2

     negative rho (up, down):  8.752E-04 0.000E+00

     total cpu time spent up to now is       26.7 secs

     total energy              =     -49.98396024 Ry
     estimated scf accuracy    <       0.00018324 Ry

     iteration #  5     ecut=    70.00 Ry     beta= 0.70
     Davidson diagonalization with overlap
     ethr =  7.63E-07,  avg # of iterations =  3.8

     negative rho (up, down):  8.879E-04 0.000E+00

     total cpu time spent up to now is       84.8 secs

     total energy              =     -49.98398489 Ry
     estimated scf accuracy    <       0.00001841 Ry

     iteration #  6     ecut=    70.00 Ry     beta= 0.70
     Davidson diagonalization with overlap
     ethr =  7.67E-08,  avg # of iterations =  2.1

     negative rho (up, down):  8.881E-04 0.000E+00

     total cpu time spent up to now is       92.7 secs

     End of self-consistent calculation

          k = 0.0000 0.0000 0.0000 ( 14727 PWs)   bands (ev):

   -16.2269 -12.0808 -12.0030 -12.0030  -9.7164  -9.7163  -7.6159  -7.0868
    -2.0140  -2.0140  -0.5679  -0.0492  -0.0491   0.2971   0.2972   0.6094

          k = 0.0000 0.1650 0.0000 ( 14700 PWs)   bands (ev):

   -16.1348 -12.9556 -12.0819 -11.2119  -9.8089  -9.4896  -7.2405  -6.9441
    -2.9173  -2.7818  -1.8811  -0.6611   0.0610   1.1687   1.2917   1.5013

          k = 0.0000 0.3299 0.0000 ( 14674 PWs)   bands (ev):

   -15.8688 -13.8093 -12.2301 -10.9089  -9.4549  -8.9351  -6.6961  -6.5260
    -4.2556  -3.7556  -3.3344  -1.2350  -0.2507   2.5781   2.8808   2.9057

          k = 0.0000 0.4949 0.0000 ( 14684 PWs)   bands (ev):

   -15.4990 -14.4852 -12.3293 -10.9852  -8.7003  -8.3662  -6.8161  -5.9128
    -5.2336  -4.4841  -3.9923  -1.5289  -0.4589   3.6141   3.8271   3.9828

          k = 0.1429 0.2474 0.0000 ( 14695 PWs)   bands (ev):

   -15.9548 -13.5711 -12.2948 -10.6909  -9.8557  -9.0229  -6.8118  -6.6628
    -3.9026  -3.5236  -2.8720  -1.5653   0.6575   1.6058   1.9186   2.7360

          k = 0.1429 0.4124 0.0000 ( 14680 PWs)   bands (ev):

   -15.6193 -14.2541 -12.5454 -10.4651  -9.3736  -8.3884  -6.8709  -6.1258
    -4.6346  -4.1025  -4.0073  -2.1835   0.6859   2.7726   2.7824   3.4891

          k = 0.1429 0.5774 0.0000 ( 14676 PWs)   bands (ev):

   -15.3266 -14.6732 -12.6403 -10.4871  -8.8143  -8.0624  -7.3438  -5.6183
    -4.9814  -4.7422  -4.0598  -2.3731   0.6097   3.3494   3.5617   4.0835

          k = 0.2857 0.4949 0.0000 ( 14681 PWs)   bands (ev):

   -15.2443 -14.7242 -12.8710  -9.7233  -9.3431  -7.9444  -7.6995  -5.5144
    -4.6948  -4.4321  -4.3283  -2.9148   1.9849   2.7434   2.9934   3.5669

     the Fermi energy is    -0.4894 ev

!    total energy              =     -49.98398985 Ry
     estimated scf accuracy    <       0.00000041 Ry
     smearing contrib. (-TS)   =      -0.00127760 Ry
     internal energy E=F+TS    =     -49.98271225 Ry

     The total energy is F=E-TS. E is the sum of the following terms:
     one-electron contribution =    -180.27197686 Ry
     hartree contribution      =      94.81311275 Ry
     xc contribution           =     -23.33858857 Ry
     ewald contribution        =      58.81474043 Ry

     convergence has been achieved in   6 iterations

     Writing all to output data dir ../../outdir/borophene.save/

     init_run     :      5.99s CPU      4.36s WALL (       1 calls)
     electrons    :     65.74s CPU     88.32s WALL (       1 calls)

     Called by init_run:
     wfcinit      :      4.95s CPU      3.42s WALL (       1 calls)
     potinit      :      0.20s CPU      0.14s WALL (       1 calls)
     hinit0       :      0.73s CPU      0.63s WALL (       1 calls)

     Called by electrons:
     c_bands      :     52.16s CPU     87.82s WALL (       6 calls)
     sum_band     :     12.10s CPU     -0.86s WALL (       6 calls)
     v_of_rho     :      1.13s CPU      0.85s WALL (       7 calls)
     newd         :      0.40s CPU      0.57s WALL (       7 calls)
     mix_rho      :      0.14s CPU      0.11s WALL (       6 calls)

     Called by c_bands:
     init_us_2    :      0.56s CPU      0.52s WALL (     104 calls)
     init_us_2:cp :      0.56s CPU      0.52s WALL (     104 calls)
     cegterg      :     51.17s CPU     86.99s WALL (      48 calls)

     Called by *egterg:
     cdiaghg      :      0.10s CPU      0.07s WALL (     191 calls)
     h_psi        :     51.41s CPU     87.18s WALL (     199 calls)
     s_psi        :      1.14s CPU      0.67s WALL (     199 calls)
     g_psi        :      0.11s CPU      0.12s WALL (     143 calls)

     Called by h_psi:
     h_psi:calbec :      1.26s CPU      1.21s WALL (     199 calls)
     vloc_psi     :     48.93s CPU     85.19s WALL (     199 calls)
     add_vuspsi   :      1.05s CPU      0.61s WALL (     199 calls)

     General routines
     calbec       :      1.76s CPU      1.63s WALL (     247 calls)
     fft          :      0.89s CPU      0.76s WALL (      77 calls)
     ffts         :      0.04s CPU      0.03s WALL (       6 calls)
     fftw         :     50.68s CPU     86.87s WALL (    5508 calls)

     Parallel routines

     PWSCF        :   1m11.85s CPU   1m32.88s WALL


   This run was terminated on:  11:19:24   2Jul2025            

=------------------------------------------------------------------------------=
   JOB DONE.
=------------------------------------------------------------------------------=
