
     Program PWSCF v.7.2 starts on  2Jul2025 at 11:19:24 

     This program is part of the open-source Quantum ESPRESSO suite
     for quantum simulation of materials; please cite
         "P. Giannozzi et al., J. Phys.:Condens. Matter 21 395502 (2009);
         "P. Giannozzi et al., J. Phys.:Condens. Matter 29 465901 (2017);
         "P. Giannozzi et al., J. Chem. Phys. 152 154105 (2020);
          URL http://www.quantum-espresso.org", 
     in publications or presentations arising from this work. More details at
     http://www.quantum-espresso.org/quote

     Parallel version (MPI & OpenMP), running on       2 processor cores
     Number of MPI processes:                 1
     Threads/MPI process:                     2

     MPI processes distributed on     1 nodes
     365 MiB available memory on the printing compute node when the environment starts

     Reading input from ../k/alpha_8.in

     Current dimensions of program PWSCF are:
     Max number of different atomic species (ntypx) = 10
     Max number of k-points (npk) =  40000
     Max angular momentum in pseudopotentials (lmaxx) =  4
     file B.pbesol-n-rrkjus_psl.1.0.0.UPF: wavefunction(s)  2S renormalized

     IMPORTANT: XC functional enforced from input :
     Exchange-correlation= PBESOL
                           (   1   4  10   8   0   0   0)
     Any further DFT definition will be discarded
     Please, verify this is what you really want


     Subspace diagonalization in iterative solution of the eigenvalue problem:
     a serial algorithm will be used


     G-vector sticks info
     --------------------
     sticks:   dense  smooth     PW     G-vecs:    dense   smooth      PW
     Sum        1735    1735    475               117515   117515   17003

     Using Slab Decomposition



     bravais-lattice index     =            4
     lattice parameter (alat)  =       9.5000  a.u.
     unit-cell volume          =    1485.0171 (a.u.)^3
     number of atoms/cell      =            8
     number of atomic types    =            1
     number of electrons       =        24.00
     number of Kohn-Sham states=           16
     kinetic-energy cutoff     =      70.0000  Ry
     charge density cutoff     =     280.0000  Ry
     scf convergence threshold =      1.0E-06
     mixing beta               =       0.7000
     number of iterations used =            8  plain     mixing
     Exchange-correlation= PBESOL
                           (   1   4  10   8   0   0   0)

     celldm(1)=   9.500000  celldm(2)=   0.000000  celldm(3)=   2.000000
     celldm(4)=   0.000000  celldm(5)=   0.000000  celldm(6)=   0.000000

     crystal axes: (cart. coord. in units of alat)
               a(1) = (   1.000000   0.000000   0.000000 )  
               a(2) = (  -0.500000   0.866025   0.000000 )  
               a(3) = (   0.000000   0.000000   2.000000 )  

     reciprocal axes: (cart. coord. in units 2 pi/alat)
               b(1) = (  1.000000  0.577350 -0.000000 )  
               b(2) = (  0.000000  1.154701  0.000000 )  
               b(3) = (  0.000000 -0.000000  0.500000 )  


     PseudoPot. # 1 for B  read from file:
     ../../pseudo/B.pbesol-n-rrkjus_psl.1.0.0.UPF
     MD5 check sum: a3839a09b1a4e02f2a06a66adc9253fc
     Pseudo is Ultrasoft + core correction, Zval =  3.0
     Generated using &quot;atomic&quot; code by A. Dal Corso  v.6.3MaX
     Using radial grid of 1059 points,  4 beta functions with: 
                l(1) =   0
                l(2) =   0
                l(3) =   1
                l(4) =   1
     Q(r) pseudized with 0 coefficients 


     atomic species   valence    mass     pseudopotential
        B              3.00    10.81100     B ( 1.00)

     24 Sym. Ops., with inversion, found



   Cartesian axes

     site n.     atom                  positions (alat units)
         1           B   tau(   1) = (   0.3333330   0.0000000   0.0000000  )
         2           B   tau(   2) = (   0.6666670   0.0000000   0.0000000  )
         3           B   tau(   3) = (  -0.1666665   0.2886748   0.0000000  )
         4           B   tau(   4) = (   0.1666665   0.2886748   0.0000000  )
         5           B   tau(   5) = (   0.5000005   0.2886748   0.0000000  )
         6           B   tau(   6) = (  -0.3333335   0.5773506   0.0000000  )
         7           B   tau(   7) = (  -0.0000005   0.5773506   0.0000000  )
         8           B   tau(   8) = (   0.3333335   0.5773506   0.0000000  )

     number of k points=    10  Marzari-Vanderbilt smearing, width (Ry)=  0.0200
                       cart. coord. in units 2pi/alat
        k(    1) = (   0.0000000   0.0000000   0.0000000), wk =   0.0312500
        k(    2) = (   0.0000000   0.1443376   0.0000000), wk =   0.1875000
        k(    3) = (   0.0000000   0.2886751   0.0000000), wk =   0.1875000
        k(    4) = (   0.0000000   0.4330127   0.0000000), wk =   0.1875000
        k(    5) = (   0.0000000  -0.5773503   0.0000000), wk =   0.0937500
        k(    6) = (   0.1250000   0.2165064   0.0000000), wk =   0.1875000
        k(    7) = (   0.1250000   0.3608439   0.0000000), wk =   0.3750000
        k(    8) = (   0.1250000   0.5051815   0.0000000), wk =   0.3750000
        k(    9) = (   0.2500000   0.4330127   0.0000000), wk =   0.1875000
        k(   10) = (   0.2500000   0.5773503   0.0000000), wk =   0.1875000

     Dense  grid:   117515 G-vectors     FFT dimensions: (  54,  54, 108)

     Estimated max dynamical RAM per process >     216.11 MB

     Initial potential from superposition of free atoms

     starting charge      23.9977, renormalised to      24.0000

     negative rho (up, down):  3.125E-05 0.000E+00
     Starting wfcs are   32 randomized atomic wfcs

     total cpu time spent up to now is        7.0 secs

     per-process dynamical memory:   122.3 Mb

     Self-consistent Calculation

     iteration #  1     ecut=    70.00 Ry     beta= 0.70
     Davidson diagonalization with overlap
     ethr =  1.00E-02,  avg # of iterations =  2.1

     negative rho (up, down):  3.587E-04 0.000E+00

     total cpu time spent up to now is        8.3 secs

     total energy              =     -49.85787686 Ry
     estimated scf accuracy    <       0.74016375 Ry

     iteration #  2     ecut=    70.00 Ry     beta= 0.70
     Davidson diagonalization with overlap
     ethr =  3.08E-03,  avg # of iterations =  2.0

     negative rho (up, down):  6.532E-04 0.000E+00

     total cpu time spent up to now is       19.3 secs

     total energy              =     -49.97846714 Ry
     estimated scf accuracy    <       0.02011090 Ry

     iteration #  3     ecut=    70.00 Ry     beta= 0.70
     Davidson diagonalization with overlap
     ethr =  8.38E-05,  avg # of iterations =  3.1

     negative rho (up, down):  7.610E-04 0.000E+00

     total cpu time spent up to now is       33.1 secs

     total energy              =     -49.98371251 Ry
     estimated scf accuracy    <       0.00544381 Ry

     iteration #  4     ecut=    70.00 Ry     beta= 0.70
     Davidson diagonalization with overlap
     ethr =  2.27E-05,  avg # of iterations =  3.1

     negative rho (up, down):  8.751E-04 0.000E+00

     total cpu time spent up to now is       44.1 secs

     total energy              =     -49.98488075 Ry
     estimated scf accuracy    <       0.00017607 Ry

     iteration #  5     ecut=    70.00 Ry     beta= 0.70
     Davidson diagonalization with overlap
     ethr =  7.34E-07,  avg # of iterations =  5.5

     negative rho (up, down):  8.870E-04 0.000E+00

     total cpu time spent up to now is       43.2 secs

     total energy              =     -49.98490375 Ry
     estimated scf accuracy    <       0.00001760 Ry

     iteration #  6     ecut=    70.00 Ry     beta= 0.70
     Davidson diagonalization with overlap
     ethr =  7.33E-08,  avg # of iterations =  2.3

     negative rho (up, down):  8.872E-04 0.000E+00

     total cpu time spent up to now is       53.0 secs

     End of self-consistent calculation

          k = 0.0000 0.0000 0.0000 ( 14727 PWs)   bands (ev):

   -16.2285 -12.0814 -12.0053 -12.0053  -9.7176  -9.7176  -7.6169  -7.0880
    -2.0170  -2.0170  -0.5668  -0.0517  -0.0516   0.2970   0.2970   0.6073

          k = 0.0000 0.1443 0.0000 ( 14718 PWs)   bands (ev):

   -16.1579 -12.8445 -12.0675 -11.3004  -9.8027  -9.5417  -7.3178  -6.9787
    -2.7539  -2.6442  -1.6893  -0.5748   0.0911   1.0021   1.1041   1.3450

          k = 0.0000 0.2887 0.0000 ( 14656 PWs)   bands (ev):

   -15.9516 -13.6077 -12.1964 -10.9204  -9.6180  -9.0921  -6.7929  -6.6559
    -3.9376  -3.5670  -2.9919  -1.1188  -0.1753   2.2282   2.4844   2.5270

          k = 0.0000 0.4330 0.0000 ( 14698 PWs)   bands (ev):

   -15.6384 -14.2693 -12.3045 -10.9556  -8.9670  -8.5507  -6.6960  -6.1502
    -4.9466  -4.1098  -3.9871  -1.4551  -0.4036   3.3358   3.5045   3.7872

          k = 0.0000-0.5774 0.0000 ( 14686 PWs)   bands (ev):

   -15.4046 -14.6217 -12.3449 -11.0029  -8.5365  -8.2633  -6.9228  -5.7352
    -5.3914  -4.7318  -3.9779  -1.5681  -0.4875   3.6030   3.9964   4.3035

          k = 0.1250 0.2165 0.0000 ( 14707 PWs)   bands (ev):

   -16.0191 -13.3959 -12.2285 -10.8290  -9.8678  -9.1762  -6.9218  -6.7623
    -3.6403  -3.3115  -2.5857  -1.3478   0.5495   1.4671   1.6928   2.3015

          k = 0.1250 0.3608 0.0000 ( 14691 PWs)   bands (ev):

   -15.7539 -14.0270 -12.4455 -10.5598  -9.5556  -8.6192  -6.7273  -6.3420
    -4.4600  -3.9759  -3.6369  -1.9451   0.5577   2.4320   2.5347   3.2371

          k = 0.1250 0.5052 0.0000 ( 14688 PWs)   bands (ev):

   -15.4264 -14.5552 -12.5746 -10.5820  -8.9093  -8.1665  -7.1376  -5.7952
    -4.9756  -4.5429  -4.0654  -2.2215   0.4369   3.2474   3.7595   3.7713

          k = 0.2500 0.4330 0.0000 ( 14703 PWs)   bands (ev):

   -15.4461 -14.4855 -12.7588  -9.9610  -9.4908  -8.1206  -7.2779  -5.8448
    -4.4023  -4.3725  -4.3225  -2.6774   1.5742   2.4811   2.8309   3.9881

          k = 0.2500 0.5774 0.0000 ( 14672 PWs)   bands (ev):

   -15.1716 -14.8130 -12.8792  -9.8243  -9.1385  -7.9122  -7.8096  -5.3807
    -4.8594  -4.5598  -4.2232  -2.9218   1.8001   3.1113   3.2187   3.4070

     the Fermi energy is    -0.4660 ev

!    total energy              =     -49.98490850 Ry
     estimated scf accuracy    <       0.00000046 Ry
     smearing contrib. (-TS)   =      -0.00136451 Ry
     internal energy E=F+TS    =     -49.98354399 Ry

     The total energy is F=E-TS. E is the sum of the following terms:
     one-electron contribution =    -180.27025657 Ry
     hartree contribution      =      94.81008692 Ry
     xc contribution           =     -23.33811477 Ry
     ewald contribution        =      58.81474043 Ry

     convergence has been achieved in   6 iterations

     Writing all to output data dir ../../outdir/borophene.save/

     init_run     :      8.00s CPU      6.93s WALL (       1 calls)
     electrons    :     86.11s CPU     45.97s WALL (       1 calls)

     Called by init_run:
     wfcinit      :      6.90s CPU      5.85s WALL (       1 calls)
     potinit      :      0.18s CPU      0.18s WALL (       1 calls)
     hinit0       :      0.77s CPU      0.68s WALL (       1 calls)

     Called by electrons:
     c_bands      :     69.10s CPU     42.28s WALL (       6 calls)
     sum_band     :     15.51s CPU      2.30s WALL (       6 calls)
     v_of_rho     :      1.11s CPU      0.87s WALL (       7 calls)
     newd         :      0.44s CPU      0.63s WALL (       7 calls)
     mix_rho      :      0.13s CPU      0.11s WALL (       6 calls)

     Called by c_bands:
     init_us_2    :      0.71s CPU      0.68s WALL (     130 calls)
     init_us_2:cp :      0.71s CPU      0.68s WALL (     130 calls)
     cegterg      :     67.88s CPU     41.13s WALL (      60 calls)

     Called by *egterg:
     cdiaghg      :      0.14s CPU      0.11s WALL (     241 calls)
     h_psi        :     68.51s CPU     55.62s WALL (     251 calls)
     s_psi        :      1.42s CPU      0.95s WALL (     251 calls)
     g_psi        :      0.20s CPU      0.19s WALL (     181 calls)

     Called by h_psi:
     h_psi:calbec :      1.73s CPU      1.81s WALL (     251 calls)
     vloc_psi     :     65.18s CPU     52.64s WALL (     251 calls)
     add_vuspsi   :      1.35s CPU      0.92s WALL (     251 calls)

     General routines
     calbec       :      2.32s CPU      2.34s WALL (     311 calls)
     fft          :      0.93s CPU      0.79s WALL (      77 calls)
     ffts         :      0.05s CPU      0.03s WALL (       6 calls)
     fftw         :     67.26s CPU     43.86s WALL (    6900 calls)

     Parallel routines

     PWSCF        :   1m34.20s CPU     53.08s WALL


   This run was terminated on:  11:20:17   2Jul2025            

=------------------------------------------------------------------------------=
   JOB DONE.
=------------------------------------------------------------------------------=
