
     Program PWSCF v.7.2 starts on  2Jul2025 at 11:17: 1 

     This program is part of the open-source Quantum ESPRESSO suite
     for quantum simulation of materials; please cite
         "P. Giannozzi et al., J. Phys.:Condens. Matter 21 395502 (2009);
         "P. Giannozzi et al., J. Phys.:Condens. Matter 29 465901 (2017);
         "P. Giannozzi et al., J. Chem. Phys. 152 154105 (2020);
          URL http://www.quantum-espresso.org", 
     in publications or presentations arising from this work. More details at
     http://www.quantum-espresso.org/quote

     Parallel version (MPI & OpenMP), running on       2 processor cores
     Number of MPI processes:                 1
     Threads/MPI process:                     2

     MPI processes distributed on     1 nodes
     350 MiB available memory on the printing compute node when the environment starts

     Reading input from ../k/alpha_5.in

     Current dimensions of program PWSCF are:
     Max number of different atomic species (ntypx) = 10
     Max number of k-points (npk) =  40000
     Max angular momentum in pseudopotentials (lmaxx) =  4
     file B.pbesol-n-rrkjus_psl.1.0.0.UPF: wavefunction(s)  2S renormalized

     IMPORTANT: XC functional enforced from input :
     Exchange-correlation= PBESOL
                           (   1   4  10   8   0   0   0)
     Any further DFT definition will be discarded
     Please, verify this is what you really want


     Subspace diagonalization in iterative solution of the eigenvalue problem:
     a serial algorithm will be used


     G-vector sticks info
     --------------------
     sticks:   dense  smooth     PW     G-vecs:    dense   smooth      PW
     Sum        1735    1735    475               117515   117515   16907

     Using Slab Decomposition



     bravais-lattice index     =            4
     lattice parameter (alat)  =       9.5000  a.u.
     unit-cell volume          =    1485.0171 (a.u.)^3
     number of atoms/cell      =            8
     number of atomic types    =            1
     number of electrons       =        24.00
     number of Kohn-Sham states=           16
     kinetic-energy cutoff     =      70.0000  Ry
     charge density cutoff     =     280.0000  Ry
     scf convergence threshold =      1.0E-06
     mixing beta               =       0.7000
     number of iterations used =            8  plain     mixing
     Exchange-correlation= PBESOL
                           (   1   4  10   8   0   0   0)

     celldm(1)=   9.500000  celldm(2)=   0.000000  celldm(3)=   2.000000
     celldm(4)=   0.000000  celldm(5)=   0.000000  celldm(6)=   0.000000

     crystal axes: (cart. coord. in units of alat)
               a(1) = (   1.000000   0.000000   0.000000 )  
               a(2) = (  -0.500000   0.866025   0.000000 )  
               a(3) = (   0.000000   0.000000   2.000000 )  

     reciprocal axes: (cart. coord. in units 2 pi/alat)
               b(1) = (  1.000000  0.577350 -0.000000 )  
               b(2) = (  0.000000  1.154701  0.000000 )  
               b(3) = (  0.000000 -0.000000  0.500000 )  


     PseudoPot. # 1 for B  read from file:
     ../../pseudo/B.pbesol-n-rrkjus_psl.1.0.0.UPF
     MD5 check sum: a3839a09b1a4e02f2a06a66adc9253fc
     Pseudo is Ultrasoft + core correction, Zval =  3.0
     Generated using &quot;atomic&quot; code by A. Dal Corso  v.6.3MaX
     Using radial grid of 1059 points,  4 beta functions with: 
                l(1) =   0
                l(2) =   0
                l(3) =   1
                l(4) =   1
     Q(r) pseudized with 0 coefficients 


     atomic species   valence    mass     pseudopotential
        B              3.00    10.81100     B ( 1.00)

     24 Sym. Ops., with inversion, found



   Cartesian axes

     site n.     atom                  positions (alat units)
         1           B   tau(   1) = (   0.3333330   0.0000000   0.0000000  )
         2           B   tau(   2) = (   0.6666670   0.0000000   0.0000000  )
         3           B   tau(   3) = (  -0.1666665   0.2886748   0.0000000  )
         4           B   tau(   4) = (   0.1666665   0.2886748   0.0000000  )
         5           B   tau(   5) = (   0.5000005   0.2886748   0.0000000  )
         6           B   tau(   6) = (  -0.3333335   0.5773506   0.0000000  )
         7           B   tau(   7) = (  -0.0000005   0.5773506   0.0000000  )
         8           B   tau(   8) = (   0.3333335   0.5773506   0.0000000  )

     number of k points=     5  Marzari-Vanderbilt smearing, width (Ry)=  0.0200
                       cart. coord. in units 2pi/alat
        k(    1) = (   0.0000000   0.0000000   0.0000000), wk =   0.0800000
        k(    2) = (   0.0000000   0.2309401   0.0000000), wk =   0.4800000
        k(    3) = (   0.0000000   0.4618802   0.0000000), wk =   0.4800000
        k(    4) = (   0.2000000   0.3464102   0.0000000), wk =   0.4800000
        k(    5) = (   0.2000000   0.5773503   0.0000000), wk =   0.4800000

     Dense  grid:   117515 G-vectors     FFT dimensions: (  54,  54, 108)

     Estimated max dynamical RAM per process >     198.18 MB

     Initial potential from superposition of free atoms

     starting charge      23.9977, renormalised to      24.0000

     negative rho (up, down):  3.125E-05 0.000E+00
     Starting wfcs are   32 randomized atomic wfcs

     total cpu time spent up to now is        3.2 secs

     per-process dynamical memory:   103.4 Mb

     Self-consistent Calculation

     iteration #  1     ecut=    70.00 Ry     beta= 0.70
     Davidson diagonalization with overlap
     ethr =  1.00E-02,  avg # of iterations =  2.2

     negative rho (up, down):  3.571E-04 0.000E+00

     total cpu time spent up to now is       -4.2 secs

     total energy              =     -49.84691468 Ry
     estimated scf accuracy    <       0.75391018 Ry

     iteration #  2     ecut=    70.00 Ry     beta= 0.70
     Davidson diagonalization with overlap
     ethr =  3.14E-03,  avg # of iterations =  2.0

     negative rho (up, down):  6.529E-04 0.000E+00

     total cpu time spent up to now is        0.8 secs

     total energy              =     -49.97365764 Ry
     estimated scf accuracy    <       0.01833811 Ry

     iteration #  3     ecut=    70.00 Ry     beta= 0.70
     Davidson diagonalization with overlap
     ethr =  7.64E-05,  avg # of iterations =  3.0

     negative rho (up, down):  7.583E-04 0.000E+00

     total cpu time spent up to now is        6.3 secs

     total energy              =     -49.97833974 Ry
     estimated scf accuracy    <       0.00567551 Ry

     iteration #  4     ecut=    70.00 Ry     beta= 0.70
     Davidson diagonalization with overlap
     ethr =  2.36E-05,  avg # of iterations =  3.4

     negative rho (up, down):  8.837E-04 0.000E+00

     total cpu time spent up to now is       11.7 secs

     total energy              =     -49.97958405 Ry
     estimated scf accuracy    <       0.00019212 Ry

     iteration #  5     ecut=    70.00 Ry     beta= 0.70
     Davidson diagonalization with overlap
     ethr =  8.00E-07,  avg # of iterations =  4.8

     negative rho (up, down):  8.911E-04 0.000E+00

     total cpu time spent up to now is       17.9 secs

     total energy              =     -49.97960841 Ry
     estimated scf accuracy    <       0.00001700 Ry

     iteration #  6     ecut=    70.00 Ry     beta= 0.70
     Davidson diagonalization with overlap
     ethr =  7.08E-08,  avg # of iterations =  2.2

     negative rho (up, down):  8.917E-04 0.000E+00

     total cpu time spent up to now is       22.7 secs

     End of self-consistent calculation

          k = 0.0000 0.0000 0.0000 ( 14727 PWs)   bands (ev):

   -16.2205 -12.0785 -11.9943 -11.9943  -9.7104  -9.7103  -7.6103  -7.0819
    -2.0017  -2.0017  -0.5730  -0.0393  -0.0392   0.2984   0.2985   0.6181

          k = 0.0000 0.2309 0.0000 ( 14704 PWs)   bands (ev):

   -16.0415 -13.3030 -12.1324 -10.9963  -9.7598  -9.2878  -6.9803  -6.8037
    -3.4542  -3.2158  -2.4819  -0.9125  -0.0568   1.7339   1.9258   2.0389

          k = 0.0000 0.4619 0.0000 ( 14672 PWs)   bands (ev):

   -15.5637 -14.3709 -12.3083 -10.9655  -8.8285  -8.4506  -6.7401  -6.0320
    -5.0844  -4.2908  -3.9867  -1.4843  -0.4286   3.4953   3.6684   4.0085

          k = 0.2000 0.3464 0.0000 ( 14679 PWs)   bands (ev):

   -15.7010 -14.0858 -12.5376 -10.2864  -9.7063  -8.4992  -6.7899  -6.2650
    -4.4039  -4.0773  -3.7016  -2.2051   1.0919   2.0700   2.5061   3.3182

          k = 0.2000 0.5774 0.0000 ( 14670 PWs)   bands (ev):

   -15.2473 -14.7276 -12.7784 -10.1307  -8.9770  -7.9682  -7.5956  -5.5030
    -4.7767  -4.7315  -4.1292  -2.7013   1.2455   3.1783   3.5052   3.6170

     the Fermi energy is    -0.5419 ev

!    total energy              =     -49.97961303 Ry
     estimated scf accuracy    <       0.00000049 Ry
     smearing contrib. (-TS)   =       0.00013026 Ry
     internal energy E=F+TS    =     -49.97974329 Ry

     The total energy is F=E-TS. E is the sum of the following terms:
     one-electron contribution =    -180.27843182 Ry
     hartree contribution      =      94.82441635 Ry
     xc contribution           =     -23.34046826 Ry
     ewald contribution        =      58.81474043 Ry

     convergence has been achieved in   6 iterations

     Writing all to output data dir ../../outdir/borophene.save/

     init_run     :      4.15s CPU      3.16s WALL (       1 calls)
     electrons    :     42.27s CPU     19.43s WALL (       1 calls)

     Called by init_run:
     wfcinit      :      3.15s CPU      2.23s WALL (       1 calls)
     potinit      :      0.19s CPU      0.14s WALL (       1 calls)
     hinit0       :      0.69s CPU      0.63s WALL (       1 calls)

     Called by electrons:
     c_bands      :     32.84s CPU     11.84s WALL (       6 calls)
     sum_band     :      7.91s CPU      6.20s WALL (       6 calls)
     v_of_rho     :      1.13s CPU      0.87s WALL (       7 calls)
     newd         :      0.47s CPU      0.56s WALL (       7 calls)
     mix_rho      :      0.12s CPU      0.12s WALL (       6 calls)

     Called by c_bands:
     init_us_2    :      0.37s CPU      0.32s WALL (      65 calls)
     init_us_2:cp :      0.37s CPU      0.32s WALL (      65 calls)
     cegterg      :     32.26s CPU     11.37s WALL (      30 calls)

     Called by *egterg:
     cdiaghg      :      0.07s CPU      0.04s WALL (     118 calls)
     h_psi        :     32.34s CPU     11.51s WALL (     123 calls)
     s_psi        :      0.66s CPU      0.41s WALL (     123 calls)
     g_psi        :      0.08s CPU      0.08s WALL (      88 calls)

     Called by h_psi:
     h_psi:calbec :      0.81s CPU    -11.78s WALL (     123 calls)
     vloc_psi     :     30.82s CPU     22.81s WALL (     123 calls)
     add_vuspsi   :      0.61s CPU      0.38s WALL (     123 calls)

     General routines
     calbec       :      1.11s CPU    -11.52s WALL (     153 calls)
     fft          :      0.89s CPU      0.79s WALL (      77 calls)
     ffts         :      0.04s CPU      0.04s WALL (       6 calls)
     fftw         :     32.20s CPU     23.70s WALL (    3444 calls)

     Parallel routines

     PWSCF        :     46.50s CPU     22.76s WALL


   This run was terminated on:  11:17:24   2Jul2025            

=------------------------------------------------------------------------------=
   JOB DONE.
=------------------------------------------------------------------------------=
