
     Program PWSCF v.7.2 starts on  2Jul2025 at 11:20:17 

     This program is part of the open-source Quantum ESPRESSO suite
     for quantum simulation of materials; please cite
         "P. Giannozzi et al., J. Phys.:Condens. Matter 21 395502 (2009);
         "P. Giannozzi et al., J. Phys.:Condens. Matter 29 465901 (2017);
         "P. Giannozzi et al., J. Chem. Phys. 152 154105 (2020);
          URL http://www.quantum-espresso.org", 
     in publications or presentations arising from this work. More details at
     http://www.quantum-espresso.org/quote

     Parallel version (MPI & OpenMP), running on       2 processor cores
     Number of MPI processes:                 1
     Threads/MPI process:                     2

     MPI processes distributed on     1 nodes
     369 MiB available memory on the printing compute node when the environment starts

     Reading input from ../k/alpha_9.in

     Current dimensions of program PWSCF are:
     Max number of different atomic species (ntypx) = 10
     Max number of k-points (npk) =  40000
     Max angular momentum in pseudopotentials (lmaxx) =  4
     file B.pbesol-n-rrkjus_psl.1.0.0.UPF: wavefunction(s)  2S renormalized

     IMPORTANT: XC functional enforced from input :
     Exchange-correlation= PBESOL
                           (   1   4  10   8   0   0   0)
     Any further DFT definition will be discarded
     Please, verify this is what you really want


     Subspace diagonalization in iterative solution of the eigenvalue problem:
     a serial algorithm will be used


     G-vector sticks info
     --------------------
     sticks:   dense  smooth     PW     G-vecs:    dense   smooth      PW
     Sum        1735    1735    499               117515   117515   17051

     Using Slab Decomposition



     bravais-lattice index     =            4
     lattice parameter (alat)  =       9.5000  a.u.
     unit-cell volume          =    1485.0171 (a.u.)^3
     number of atoms/cell      =            8
     number of atomic types    =            1
     number of electrons       =        24.00
     number of Kohn-Sham states=           16
     kinetic-energy cutoff     =      70.0000  Ry
     charge density cutoff     =     280.0000  Ry
     scf convergence threshold =      1.0E-06
     mixing beta               =       0.7000
     number of iterations used =            8  plain     mixing
     Exchange-correlation= PBESOL
                           (   1   4  10   8   0   0   0)

     celldm(1)=   9.500000  celldm(2)=   0.000000  celldm(3)=   2.000000
     celldm(4)=   0.000000  celldm(5)=   0.000000  celldm(6)=   0.000000

     crystal axes: (cart. coord. in units of alat)
               a(1) = (   1.000000   0.000000   0.000000 )  
               a(2) = (  -0.500000   0.866025   0.000000 )  
               a(3) = (   0.000000   0.000000   2.000000 )  

     reciprocal axes: (cart. coord. in units 2 pi/alat)
               b(1) = (  1.000000  0.577350 -0.000000 )  
               b(2) = (  0.000000  1.154701  0.000000 )  
               b(3) = (  0.000000 -0.000000  0.500000 )  


     PseudoPot. # 1 for B  read from file:
     ../../pseudo/B.pbesol-n-rrkjus_psl.1.0.0.UPF
     MD5 check sum: a3839a09b1a4e02f2a06a66adc9253fc
     Pseudo is Ultrasoft + core correction, Zval =  3.0
     Generated using &quot;atomic&quot; code by A. Dal Corso  v.6.3MaX
     Using radial grid of 1059 points,  4 beta functions with: 
                l(1) =   0
                l(2) =   0
                l(3) =   1
                l(4) =   1
     Q(r) pseudized with 0 coefficients 


     atomic species   valence    mass     pseudopotential
        B              3.00    10.81100     B ( 1.00)

     24 Sym. Ops., with inversion, found



   Cartesian axes

     site n.     atom                  positions (alat units)
         1           B   tau(   1) = (   0.3333330   0.0000000   0.0000000  )
         2           B   tau(   2) = (   0.6666670   0.0000000   0.0000000  )
         3           B   tau(   3) = (  -0.1666665   0.2886748   0.0000000  )
         4           B   tau(   4) = (   0.1666665   0.2886748   0.0000000  )
         5           B   tau(   5) = (   0.5000005   0.2886748   0.0000000  )
         6           B   tau(   6) = (  -0.3333335   0.5773506   0.0000000  )
         7           B   tau(   7) = (  -0.0000005   0.5773506   0.0000000  )
         8           B   tau(   8) = (   0.3333335   0.5773506   0.0000000  )

     number of k points=    12  Marzari-Vanderbilt smearing, width (Ry)=  0.0200
                       cart. coord. in units 2pi/alat
        k(    1) = (   0.0000000   0.0000000   0.0000000), wk =   0.0246914
        k(    2) = (   0.0000000   0.1283001   0.0000000), wk =   0.1481481
        k(    3) = (   0.0000000   0.2566001   0.0000000), wk =   0.1481481
        k(    4) = (   0.0000000   0.3849002   0.0000000), wk =   0.1481481
        k(    5) = (   0.0000000   0.5132002   0.0000000), wk =   0.1481481
        k(    6) = (   0.1111111   0.1924501   0.0000000), wk =   0.1481481
        k(    7) = (   0.1111111   0.3207501   0.0000000), wk =   0.2962963
        k(    8) = (   0.1111111   0.4490502   0.0000000), wk =   0.2962963
        k(    9) = (   0.1111111   0.5773503   0.0000000), wk =   0.1481481
        k(   10) = (   0.2222222   0.3849002   0.0000000), wk =   0.1481481
        k(   11) = (   0.2222222   0.5132002   0.0000000), wk =   0.2962963
        k(   12) = (   0.3333333   0.5773503   0.0000000), wk =   0.0493827

     Dense  grid:   117515 G-vectors     FFT dimensions: (  54,  54, 108)

     Estimated max dynamical RAM per process >     223.28 MB

     Initial potential from superposition of free atoms

     starting charge      23.9977, renormalised to      24.0000

     negative rho (up, down):  3.125E-05 0.000E+00
     Starting wfcs are   32 randomized atomic wfcs

     total cpu time spent up to now is        7.4 secs

     per-process dynamical memory:   129.8 Mb

     Self-consistent Calculation

     iteration #  1     ecut=    70.00 Ry     beta= 0.70
     Davidson diagonalization with overlap
     ethr =  1.00E-02,  avg # of iterations =  2.1

     negative rho (up, down):  3.576E-04 0.000E+00

     total cpu time spent up to now is       10.3 secs

     total energy              =     -49.85702305 Ry
     estimated scf accuracy    <       0.74205261 Ry

     iteration #  2     ecut=    70.00 Ry     beta= 0.70
     Davidson diagonalization with overlap
     ethr =  3.09E-03,  avg # of iterations =  2.0

     negative rho (up, down):  6.521E-04 0.000E+00

     total cpu time spent up to now is       23.3 secs

     total energy              =     -49.97919496 Ry
     estimated scf accuracy    <       0.01966660 Ry

     iteration #  3     ecut=    70.00 Ry     beta= 0.70
     Davidson diagonalization with overlap
     ethr =  8.19E-05,  avg # of iterations =  5.1

     negative rho (up, down):  7.601E-04 0.000E+00

     total cpu time spent up to now is       27.1 secs

     total energy              =     -49.98428970 Ry
     estimated scf accuracy    <       0.00522255 Ry

     iteration #  4     ecut=    70.00 Ry     beta= 0.70
     Davidson diagonalization with overlap
     ethr =  2.18E-05,  avg # of iterations =  3.8

     negative rho (up, down):  8.762E-04 0.000E+00

     total cpu time spent up to now is       41.7 secs

     total energy              =     -49.98541937 Ry
     estimated scf accuracy    <       0.00017430 Ry

     iteration #  5     ecut=    70.00 Ry     beta= 0.70
     Davidson diagonalization with overlap
     ethr =  7.26E-07,  avg # of iterations =  4.9

     negative rho (up, down):  8.865E-04 0.000E+00

     total cpu time spent up to now is       57.3 secs

     total energy              =     -49.98544077 Ry
     estimated scf accuracy    <       0.00001756 Ry

     iteration #  6     ecut=    70.00 Ry     beta= 0.70
     Davidson diagonalization with overlap
     ethr =  7.32E-08,  avg # of iterations =  2.6

     negative rho (up, down):  8.868E-04 0.000E+00

     total cpu time spent up to now is      116.6 secs

     End of self-consistent calculation

          k = 0.0000 0.0000 0.0000 ( 14727 PWs)   bands (ev):

   -16.2293 -12.0819 -12.0064 -12.0063  -9.7180  -9.7180  -7.6169  -7.0886
    -2.0179  -2.0179  -0.5670  -0.0526  -0.0525   0.2968   0.2968   0.6068

          k = 0.0000 0.1283 0.0000 ( 14714 PWs)   bands (ev):

   -16.1735 -12.7572 -12.0565 -11.3739  -9.7934  -9.5778  -7.3739  -7.0021
    -2.6297  -2.5387  -1.5396  -0.5050   0.1103   0.8783   0.9643   1.2287

          k = 0.0000 0.2566 0.0000 ( 14704 PWs)   bands (ev):

   -16.0092 -13.4449 -12.1680 -10.9549  -9.7143  -9.2083  -6.8949  -6.7459
    -3.6788  -3.3873  -2.7148  -1.0155  -0.1131   1.9506   2.1714   2.2445

          k = 0.0000 0.3849 0.0000 ( 14698 PWs)   bands (ev):

   -15.7511 -14.0669 -12.2755 -10.9291  -9.2007  -8.7259  -6.6539  -6.3347
    -4.6506  -3.9242  -3.7664  -1.3683  -0.3412   3.0116   3.2602   3.3834

          k = 0.0000 0.5132 0.0000 ( 14684 PWs)   bands (ev):

   -15.4671 -14.5374 -12.3377 -10.9929  -8.6407  -8.3282  -6.8551  -5.8525
    -5.2965  -4.5747  -3.9898  -1.5465  -0.4711   3.6350   3.8840   4.0185

          k = 0.1111 0.1925 0.0000 ( 14679 PWs)   bands (ev):

   -16.0632 -13.2552 -12.1817 -10.9421  -9.8655  -9.2858  -7.0222  -6.8306
    -3.4177  -3.1371  -2.3546  -1.1747   0.4746   1.3607   1.5068   1.9761

          k = 0.1111 0.3208 0.0000 ( 14694 PWs)   bands (ev):

   -15.8499 -13.8364 -12.3663 -10.6403  -9.6767  -8.8086  -6.7144  -6.4946
    -4.2552  -3.8097  -3.3253  -1.7397   0.4744   2.1778   2.3064   3.0630

          k = 0.1111 0.4491 0.0000 ( 14680 PWs)   bands (ev):

   -15.5612 -14.3674 -12.5034 -10.6401  -9.1065  -8.3370  -6.9042  -6.0249
    -4.8541  -4.2266  -4.0673  -2.0570   0.3331   3.0505   3.3473   3.6215

          k = 0.1111 0.5774 0.0000 ( 14694 PWs)   bands (ev):

   -15.3593 -14.6532 -12.5524 -10.6652  -8.7298  -8.1188  -7.2060  -5.6657
    -5.1175  -4.7360  -4.0290  -2.1596   0.2755   3.4901   3.5794   4.2734

          k = 0.2222 0.3849 0.0000 ( 14695 PWs)   bands (ev):

   -15.5970 -14.2763 -12.6467 -10.1452  -9.6214  -8.3196  -6.9704  -6.0897
    -4.4449  -4.2431  -3.9941  -2.4366   1.2904   2.2462   2.6662   3.5278

          k = 0.2222 0.5132 0.0000 ( 14689 PWs)   bands (ev):

   -15.2983 -14.6773 -12.8127 -10.0013  -9.1748  -7.9916  -7.5656  -5.5938
    -4.6506  -4.6138  -4.2127  -2.7762   1.4853   3.0293   3.1134   3.6242

          k = 0.3333 0.5774 0.0000 ( 14640 PWs)   bands (ev):

   -14.9926 -14.9925 -12.9379  -9.4094  -9.4094  -7.9858  -7.8664  -5.1061
    -5.1061  -4.3614  -4.3614  -3.0554   2.6066   2.6066   3.2002   3.2002

     the Fermi energy is    -0.4525 ev

!    total energy              =     -49.98544567 Ry
     estimated scf accuracy    <       0.00000079 Ry
     smearing contrib. (-TS)   =      -0.00115327 Ry
     internal energy E=F+TS    =     -49.98429239 Ry

     The total energy is F=E-TS. E is the sum of the following terms:
     one-electron contribution =    -180.26981050 Ry
     hartree contribution      =      94.80867853 Ry
     xc contribution           =     -23.33790085 Ry
     ewald contribution        =      58.81474043 Ry

     convergence has been achieved in   6 iterations

     Writing all to output data dir ../../outdir/borophene.save/

     init_run     :      9.01s CPU      7.35s WALL (       1 calls)
     electrons    :    105.15s CPU    109.21s WALL (       1 calls)

     Called by init_run:
     wfcinit      :      7.97s CPU      6.42s WALL (       1 calls)
     potinit      :      0.17s CPU      0.13s WALL (       1 calls)
     hinit0       :      0.70s CPU      0.62s WALL (       1 calls)

     Called by electrons:
     c_bands      :     85.63s CPU    105.44s WALL (       6 calls)
     sum_band     :     18.02s CPU      2.41s WALL (       6 calls)
     v_of_rho     :      1.09s CPU      0.80s WALL (       7 calls)
     newd         :      0.47s CPU      0.61s WALL (       7 calls)
     mix_rho      :      0.11s CPU      0.12s WALL (       6 calls)

     Called by c_bands:
     init_us_2    :      0.85s CPU      0.81s WALL (     156 calls)
     init_us_2:cp :      0.85s CPU      0.81s WALL (     156 calls)
     cegterg      :     84.13s CPU    104.14s WALL (      72 calls)

     Called by *egterg:
     cdiaghg      :      0.18s CPU      0.13s WALL (     318 calls)
     h_psi        :     84.39s CPU    104.83s WALL (     330 calls)
     s_psi        :      1.79s CPU      1.17s WALL (     330 calls)
     g_psi        :      0.26s CPU      0.24s WALL (     246 calls)

     Called by h_psi:
     h_psi:calbec :      2.07s CPU      2.19s WALL (     330 calls)
     vloc_psi     :     80.35s CPU    101.26s WALL (     330 calls)
     add_vuspsi   :      1.69s CPU      1.08s WALL (     330 calls)

     General routines
     calbec       :      2.74s CPU      2.79s WALL (     402 calls)
     fft          :      0.81s CPU      0.73s WALL (      77 calls)
     ffts         :      0.03s CPU      0.02s WALL (       6 calls)
     fftw         :     82.08s CPU    102.91s WALL (    8360 calls)

     Parallel routines

     PWSCF        :   1m54.27s CPU   1m56.81s WALL


   This run was terminated on:  11:22:14   2Jul2025            

=------------------------------------------------------------------------------=
   JOB DONE.
=------------------------------------------------------------------------------=
