
     Program PWSCF v.7.2 starts on  2Jul2025 at 10:41:42 

     This program is part of the open-source Quantum ESPRESSO suite
     for quantum simulation of materials; please cite
         "P. Giannozzi et al., J. Phys.:Condens. Matter 21 395502 (2009);
         "P. Giannozzi et al., J. Phys.:Condens. Matter 29 465901 (2017);
         "P. Giannozzi et al., J. Chem. Phys. 152 154105 (2020);
          URL http://www.quantum-espresso.org", 
     in publications or presentations arising from this work. More details at
     http://www.quantum-espresso.org/quote

     Parallel version (MPI & OpenMP), running on       2 processor cores
     Number of MPI processes:                 1
     Threads/MPI process:                     2

     MPI processes distributed on     1 nodes
     391 MiB available memory on the printing compute node when the environment starts

     Reading input from ../ecut/alpha_80.in

     Current dimensions of program PWSCF are:
     Max number of different atomic species (ntypx) = 10
     Max number of k-points (npk) =  40000
     Max angular momentum in pseudopotentials (lmaxx) =  4
     file B.pbesol-n-rrkjus_psl.1.0.0.UPF: wavefunction(s)  2S renormalized

     IMPORTANT: XC functional enforced from input :
     Exchange-correlation= PBESOL
                           (   1   4  10   8   0   0   0)
     Any further DFT definition will be discarded
     Please, verify this is what you really want


     Subspace diagonalization in iterative solution of the eigenvalue problem:
     a serial algorithm will be used


     G-vector sticks info
     --------------------
     sticks:   dense  smooth     PW     G-vecs:    dense   smooth      PW
     Sum        1981    1981    559               143485   143485   20739

     Using Slab Decomposition



     bravais-lattice index     =            4
     lattice parameter (alat)  =       9.5000  a.u.
     unit-cell volume          =    1485.0171 (a.u.)^3
     number of atoms/cell      =            8
     number of atomic types    =            1
     number of electrons       =        24.00
     number of Kohn-Sham states=           16
     kinetic-energy cutoff     =      80.0000  Ry
     charge density cutoff     =     320.0000  Ry
     scf convergence threshold =      1.0E-06
     mixing beta               =       0.7000
     number of iterations used =            8  plain     mixing
     Exchange-correlation= PBESOL
                           (   1   4  10   8   0   0   0)

     celldm(1)=   9.500000  celldm(2)=   0.000000  celldm(3)=   2.000000
     celldm(4)=   0.000000  celldm(5)=   0.000000  celldm(6)=   0.000000

     crystal axes: (cart. coord. in units of alat)
               a(1) = (   1.000000   0.000000   0.000000 )  
               a(2) = (  -0.500000   0.866025   0.000000 )  
               a(3) = (   0.000000   0.000000   2.000000 )  

     reciprocal axes: (cart. coord. in units 2 pi/alat)
               b(1) = (  1.000000  0.577350 -0.000000 )  
               b(2) = (  0.000000  1.154701  0.000000 )  
               b(3) = (  0.000000 -0.000000  0.500000 )  


     PseudoPot. # 1 for B  read from file:
     ../../pseudo/B.pbesol-n-rrkjus_psl.1.0.0.UPF
     MD5 check sum: a3839a09b1a4e02f2a06a66adc9253fc
     Pseudo is Ultrasoft + core correction, Zval =  3.0
     Generated using &quot;atomic&quot; code by A. Dal Corso  v.6.3MaX
     Using radial grid of 1059 points,  4 beta functions with: 
                l(1) =   0
                l(2) =   0
                l(3) =   1
                l(4) =   1
     Q(r) pseudized with 0 coefficients 


     atomic species   valence    mass     pseudopotential
        B              3.00    10.81100     B ( 1.00)

     24 Sym. Ops., with inversion, found



   Cartesian axes

     site n.     atom                  positions (alat units)
         1           B   tau(   1) = (   0.3333330   0.0000000   0.0000000  )
         2           B   tau(   2) = (   0.6666670   0.0000000   0.0000000  )
         3           B   tau(   3) = (  -0.1666665   0.2886748   0.0000000  )
         4           B   tau(   4) = (   0.1666665   0.2886748   0.0000000  )
         5           B   tau(   5) = (   0.5000005   0.2886748   0.0000000  )
         6           B   tau(   6) = (  -0.3333335   0.5773506   0.0000000  )
         7           B   tau(   7) = (  -0.0000005   0.5773506   0.0000000  )
         8           B   tau(   8) = (   0.3333335   0.5773506   0.0000000  )

     number of k points=     7  Marzari-Vanderbilt smearing, width (Ry)=  0.0200
                       cart. coord. in units 2pi/alat
        k(    1) = (   0.0000000   0.0000000   0.0000000), wk =   0.0555556
        k(    2) = (   0.0000000   0.1924501   0.0000000), wk =   0.3333333
        k(    3) = (   0.0000000   0.3849002   0.0000000), wk =   0.3333333
        k(    4) = (   0.0000000  -0.5773503   0.0000000), wk =   0.1666667
        k(    5) = (   0.1666667   0.2886751   0.0000000), wk =   0.3333333
        k(    6) = (   0.1666667   0.4811252   0.0000000), wk =   0.6666667
        k(    7) = (   0.3333333   0.5773503   0.0000000), wk =   0.1111111

     Dense  grid:   143485 G-vectors     FFT dimensions: (  60,  60, 120)

     Estimated max dynamical RAM per process >     253.96 MB

     Check: negative core charge=   -0.000001

     Initial potential from superposition of free atoms

     starting charge      23.9977, renormalised to      24.0000

     negative rho (up, down):  3.752E-06 0.000E+00
     Starting wfcs are   32 randomized atomic wfcs

     total cpu time spent up to now is        5.2 secs

     per-process dynamical memory:   136.6 Mb

     Self-consistent Calculation

     iteration #  1     ecut=    80.00 Ry     beta= 0.70
     Davidson diagonalization with overlap
     ethr =  1.00E-02,  avg # of iterations =  2.0

     negative rho (up, down):  1.603E-04 0.000E+00

     total cpu time spent up to now is       13.8 secs

     total energy              =     -49.85408185 Ry
     estimated scf accuracy    <       0.74508429 Ry

     iteration #  2     ecut=    80.00 Ry     beta= 0.70
     Davidson diagonalization with overlap
     ethr =  3.10E-03,  avg # of iterations =  2.0

     negative rho (up, down):  3.374E-04 0.000E+00

     total cpu time spent up to now is       11.1 secs

     total energy              =     -49.97628705 Ry
     estimated scf accuracy    <       0.01952601 Ry

     iteration #  3     ecut=    80.00 Ry     beta= 0.70
     Davidson diagonalization with overlap
     ethr =  8.14E-05,  avg # of iterations =  3.6

     negative rho (up, down):  4.082E-04 0.000E+00

     total cpu time spent up to now is       20.3 secs

     total energy              =     -49.98132008 Ry
     estimated scf accuracy    <       0.00589023 Ry

     iteration #  4     ecut=    80.00 Ry     beta= 0.70
     Davidson diagonalization with overlap
     ethr =  2.45E-05,  avg # of iterations =  2.0

     negative rho (up, down):  4.914E-04 0.000E+00

     total cpu time spent up to now is       27.5 secs

     total energy              =     -49.98259850 Ry
     estimated scf accuracy    <       0.00018793 Ry

     iteration #  5     ecut=    80.00 Ry     beta= 0.70
     Davidson diagonalization with overlap
     ethr =  7.83E-07,  avg # of iterations =  7.1

     negative rho (up, down):  4.982E-04 0.000E+00

     total cpu time spent up to now is       27.9 secs

     total energy              =     -49.98262467 Ry
     estimated scf accuracy    <       0.00002042 Ry

     iteration #  6     ecut=    80.00 Ry     beta= 0.70
     Davidson diagonalization with overlap
     ethr =  8.51E-08,  avg # of iterations =  2.6

     negative rho (up, down):  4.986E-04 0.000E+00

     total cpu time spent up to now is       36.2 secs

     End of self-consistent calculation

          k = 0.0000 0.0000 0.0000 ( 17977 PWs)   bands (ev):

   -16.2239 -12.0801 -11.9992 -11.9991  -9.7139  -9.7139  -7.6135  -7.0845
    -2.0088  -2.0088  -0.5702  -0.0445  -0.0445   0.2974   0.2974   0.6135

          k = 0.0000 0.1925 0.0000 ( 17973 PWs)   bands (ev):

   -16.0990 -13.1017 -12.1020 -11.1080  -9.8030  -9.4113  -7.1321  -6.8907
    -3.1396  -2.9656  -2.1341  -0.7699   0.0150   1.4000   1.5514   1.7197

          k = 0.0000 0.3849 0.0000 ( 17954 PWs)   bands (ev):

   -15.7457 -14.0618 -12.2686 -10.9259  -9.1969  -8.7220  -6.6495  -6.3307
    -4.6435  -3.9181  -3.7626  -1.3609  -0.3380   3.0172   3.3863   3.4349

          k = 0.0000-0.5774 0.0000 ( 17934 PWs)   bands (ev):

   -15.4001 -14.6173 -12.3390 -11.0001  -8.5338  -8.2603  -6.9182  -5.7322
    -5.3845  -4.7281  -3.9725  -1.5615  -0.4847   3.6067   4.0088   4.3300

          k = 0.1667 0.2887 0.0000 ( 17921 PWs)   bands (ev):

   -15.8570 -13.7942 -12.3921 -10.5171  -9.8128  -8.8055  -6.7264  -6.5108
    -4.1865  -3.7800  -3.2338  -1.8433   0.8223   1.7957   2.1903   3.0823

          k = 0.1667 0.4811 0.0000 ( 17927 PWs)   bands (ev):

   -15.4319 -14.5165 -12.6647 -10.3351  -9.1276  -8.1381  -7.2093  -5.8178
    -4.7554  -4.4358  -4.1354  -2.4496   0.8939   3.0289   3.2370   3.8422

          k = 0.3333 0.5774 0.0000 ( 17988 PWs)   bands (ev):

   -14.9873 -14.9872 -12.9320  -9.4059  -9.4059  -7.9795  -7.8632  -5.1026
    -5.1025  -4.3548  -4.3547  -3.0486   2.6098   2.6098   3.2034   3.2034

     the Fermi energy is    -0.5201 ev

!    total energy              =     -49.98263003 Ry
     estimated scf accuracy    <       0.00000040 Ry
     smearing contrib. (-TS)   =      -0.00073172 Ry
     internal energy E=F+TS    =     -49.98189831 Ry

     The total energy is F=E-TS. E is the sum of the following terms:
     one-electron contribution =    -180.27677945 Ry
     hartree contribution      =      94.81924038 Ry
     xc contribution           =     -23.33909968 Ry
     ewald contribution        =      58.81474043 Ry

     convergence has been achieved in   6 iterations

     Writing all to output data dir ../../outdir/borophene.save/

     init_run     :      7.16s CPU      5.17s WALL (       1 calls)
     electrons    :     72.04s CPU     31.00s WALL (       1 calls)

     Called by init_run:
     wfcinit      :      5.74s CPU      3.87s WALL (       1 calls)
     potinit      :      0.23s CPU      0.18s WALL (       1 calls)
     hinit0       :      1.03s CPU      0.93s WALL (       1 calls)

     Called by electrons:
     c_bands      :     57.53s CPU     19.74s WALL (       6 calls)
     sum_band     :     12.62s CPU      9.54s WALL (       6 calls)
     v_of_rho     :      1.39s CPU      1.03s WALL (       7 calls)
     newd         :      0.56s CPU      0.77s WALL (       7 calls)
     mix_rho      :      0.17s CPU      0.14s WALL (       6 calls)

     Called by c_bands:
     init_us_2    :      0.55s CPU      0.53s WALL (      91 calls)
     init_us_2:cp :      0.55s CPU      0.53s WALL (      91 calls)
     cegterg      :     56.49s CPU     18.86s WALL (      42 calls)

     Called by *egterg:
     cdiaghg      :      0.09s CPU      0.06s WALL (     177 calls)
     h_psi        :     57.13s CPU     19.35s WALL (     184 calls)
     s_psi        :      1.18s CPU      0.67s WALL (     184 calls)
     g_psi        :      0.17s CPU      0.15s WALL (     135 calls)

     Called by h_psi:
     h_psi:calbec :      1.39s CPU      1.22s WALL (     184 calls)
     vloc_psi     :     54.40s CPU     17.29s WALL (     184 calls)
     add_vuspsi   :      1.15s CPU      0.64s WALL (     184 calls)

     General routines
     calbec       :      1.85s CPU      1.59s WALL (     226 calls)
     fft          :      1.22s CPU      1.07s WALL (      77 calls)
     ffts         :      0.05s CPU      0.03s WALL (       6 calls)
     fftw         :     53.45s CPU     17.45s WALL (    4812 calls)

     Parallel routines

     PWSCF        :   1m19.32s CPU     36.37s WALL


   This run was terminated on:  10:42:19   2Jul2025            

=------------------------------------------------------------------------------=
   JOB DONE.
=------------------------------------------------------------------------------=
