
     Program PWSCF v.7.2 starts on  2Jul2025 at 10:39:46 

     This program is part of the open-source Quantum ESPRESSO suite
     for quantum simulation of materials; please cite
         "P. Giannozzi et al., J. Phys.:Condens. Matter 21 395502 (2009);
         "P. Giannozzi et al., J. Phys.:Condens. Matter 29 465901 (2017);
         "P. Giannozzi et al., J. Chem. Phys. 152 154105 (2020);
          URL http://www.quantum-espresso.org", 
     in publications or presentations arising from this work. More details at
     http://www.quantum-espresso.org/quote

     Parallel version (MPI & OpenMP), running on       2 processor cores
     Number of MPI processes:                 1
     Threads/MPI process:                     2

     MPI processes distributed on     1 nodes
     396 MiB available memory on the printing compute node when the environment starts

     Reading input from ../ecut/alpha_60.in

     Current dimensions of program PWSCF are:
     Max number of different atomic species (ntypx) = 10
     Max number of k-points (npk) =  40000
     Max angular momentum in pseudopotentials (lmaxx) =  4
     file B.pbesol-n-rrkjus_psl.1.0.0.UPF: wavefunction(s)  2S renormalized

     IMPORTANT: XC functional enforced from input :
     Exchange-correlation= PBESOL
                           (   1   4  10   8   0   0   0)
     Any further DFT definition will be discarded
     Please, verify this is what you really want


     Subspace diagonalization in iterative solution of the eigenvalue problem:
     a serial algorithm will be used


     G-vector sticks info
     --------------------
     sticks:   dense  smooth     PW     G-vecs:    dense   smooth      PW
     Sum        1495    1495    421                93291    93291   13705

     Using Slab Decomposition



     bravais-lattice index     =            4
     lattice parameter (alat)  =       9.5000  a.u.
     unit-cell volume          =    1485.0171 (a.u.)^3
     number of atoms/cell      =            8
     number of atomic types    =            1
     number of electrons       =        24.00
     number of Kohn-Sham states=           16
     kinetic-energy cutoff     =      60.0000  Ry
     charge density cutoff     =     240.0000  Ry
     scf convergence threshold =      1.0E-06
     mixing beta               =       0.7000
     number of iterations used =            8  plain     mixing
     Exchange-correlation= PBESOL
                           (   1   4  10   8   0   0   0)

     celldm(1)=   9.500000  celldm(2)=   0.000000  celldm(3)=   2.000000
     celldm(4)=   0.000000  celldm(5)=   0.000000  celldm(6)=   0.000000

     crystal axes: (cart. coord. in units of alat)
               a(1) = (   1.000000   0.000000   0.000000 )  
               a(2) = (  -0.500000   0.866025   0.000000 )  
               a(3) = (   0.000000   0.000000   2.000000 )  

     reciprocal axes: (cart. coord. in units 2 pi/alat)
               b(1) = (  1.000000  0.577350 -0.000000 )  
               b(2) = (  0.000000  1.154701  0.000000 )  
               b(3) = (  0.000000 -0.000000  0.500000 )  


     PseudoPot. # 1 for B  read from file:
     ../../pseudo/B.pbesol-n-rrkjus_psl.1.0.0.UPF
     MD5 check sum: a3839a09b1a4e02f2a06a66adc9253fc
     Pseudo is Ultrasoft + core correction, Zval =  3.0
     Generated using &quot;atomic&quot; code by A. Dal Corso  v.6.3MaX
     Using radial grid of 1059 points,  4 beta functions with: 
                l(1) =   0
                l(2) =   0
                l(3) =   1
                l(4) =   1
     Q(r) pseudized with 0 coefficients 


     atomic species   valence    mass     pseudopotential
        B              3.00    10.81100     B ( 1.00)

     24 Sym. Ops., with inversion, found



   Cartesian axes

     site n.     atom                  positions (alat units)
         1           B   tau(   1) = (   0.3333330   0.0000000   0.0000000  )
         2           B   tau(   2) = (   0.6666670   0.0000000   0.0000000  )
         3           B   tau(   3) = (  -0.1666665   0.2886748   0.0000000  )
         4           B   tau(   4) = (   0.1666665   0.2886748   0.0000000  )
         5           B   tau(   5) = (   0.5000005   0.2886748   0.0000000  )
         6           B   tau(   6) = (  -0.3333335   0.5773506   0.0000000  )
         7           B   tau(   7) = (  -0.0000005   0.5773506   0.0000000  )
         8           B   tau(   8) = (   0.3333335   0.5773506   0.0000000  )

     number of k points=     7  Marzari-Vanderbilt smearing, width (Ry)=  0.0200
                       cart. coord. in units 2pi/alat
        k(    1) = (   0.0000000   0.0000000   0.0000000), wk =   0.0555556
        k(    2) = (   0.0000000   0.1924501   0.0000000), wk =   0.3333333
        k(    3) = (   0.0000000   0.3849002   0.0000000), wk =   0.3333333
        k(    4) = (   0.0000000  -0.5773503   0.0000000), wk =   0.1666667
        k(    5) = (   0.1666667   0.2886751   0.0000000), wk =   0.3333333
        k(    6) = (   0.1666667   0.4811252   0.0000000), wk =   0.6666667
        k(    7) = (   0.3333333   0.5773503   0.0000000), wk =   0.1111111

     Dense  grid:    93291 G-vectors     FFT dimensions: (  48,  48,  96)

     Estimated max dynamical RAM per process >     161.08 MB

     Check: negative core charge=   -0.000002

     Initial potential from superposition of free atoms

     starting charge      23.9977, renormalised to      24.0000

     negative rho (up, down):  3.538E-08 0.000E+00
     Starting wfcs are   32 randomized atomic wfcs

     total cpu time spent up to now is        4.3 secs

     per-process dynamical memory:    87.8 Mb

     Self-consistent Calculation

     iteration #  1     ecut=    60.00 Ry     beta= 0.70
     Davidson diagonalization with overlap
     ethr =  1.00E-02,  avg # of iterations =  2.0

     negative rho (up, down):  7.879E-05 0.000E+00

     total cpu time spent up to now is       -1.8 secs

     total energy              =     -49.85276276 Ry
     estimated scf accuracy    <       0.74580162 Ry

     iteration #  2     ecut=    60.00 Ry     beta= 0.70
     Davidson diagonalization with overlap
     ethr =  3.11E-03,  avg # of iterations =  2.0

     negative rho (up, down):  2.099E-04 0.000E+00

     total cpu time spent up to now is        4.8 secs

     total energy              =     -49.97533280 Ry
     estimated scf accuracy    <       0.01963807 Ry

     iteration #  3     ecut=    60.00 Ry     beta= 0.70
     Davidson diagonalization with overlap
     ethr =  8.18E-05,  avg # of iterations =  3.6

     negative rho (up, down):  2.664E-04 0.000E+00

     total cpu time spent up to now is       12.5 secs

     total energy              =     -49.98038172 Ry
     estimated scf accuracy    <       0.00593053 Ry

     iteration #  4     ecut=    60.00 Ry     beta= 0.70
     Davidson diagonalization with overlap
     ethr =  2.47E-05,  avg # of iterations =  2.0

     negative rho (up, down):  3.357E-04 0.000E+00

     total cpu time spent up to now is       70.0 secs

     total energy              =     -49.98166904 Ry
     estimated scf accuracy    <       0.00018923 Ry

     iteration #  5     ecut=    60.00 Ry     beta= 0.70
     Davidson diagonalization with overlap
     ethr =  7.88E-07,  avg # of iterations =  7.3

     negative rho (up, down):  3.411E-04 0.000E+00

     total cpu time spent up to now is       80.2 secs

     total energy              =     -49.98169534 Ry
     estimated scf accuracy    <       0.00002014 Ry

     iteration #  6     ecut=    60.00 Ry     beta= 0.70
     Davidson diagonalization with overlap
     ethr =  8.39E-08,  avg # of iterations =  2.1

     negative rho (up, down):  3.412E-04 0.000E+00

     total cpu time spent up to now is       86.7 secs

     End of self-consistent calculation

          k = 0.0000 0.0000 0.0000 ( 11561 PWs)   bands (ev):

   -16.2240 -12.0799 -11.9989 -11.9989  -9.7137  -9.7137  -7.6132  -7.0842
    -2.0084  -2.0084  -0.5697  -0.0440  -0.0439   0.2977   0.2977   0.6140

          k = 0.0000 0.1925 0.0000 ( 11662 PWs)   bands (ev):

   -16.0991 -13.1015 -12.1018 -11.1077  -9.8028  -9.4111  -7.1318  -6.8904
    -3.1393  -2.9652  -2.1337  -0.7694   0.0155   1.4003   1.5517   1.7202

          k = 0.0000 0.3849 0.0000 ( 11674 PWs)   bands (ev):

   -15.7457 -14.0617 -12.2685 -10.9257  -9.1965  -8.7217  -6.6491  -6.3304
    -4.6432  -3.9177  -3.7622  -1.3605  -0.3375   3.0176   3.3866   3.4355

          k = 0.0000-0.5774 0.0000 ( 11688 PWs)   bands (ev):

   -15.4001 -14.6173 -12.3389 -11.0000  -8.5334  -8.2600  -6.9178  -5.7318
    -5.3843  -4.7278  -3.9721  -1.5611  -0.4843   3.6069   4.0101   4.3325

          k = 0.1667 0.2887 0.0000 ( 11662 PWs)   bands (ev):

   -15.8571 -13.7941 -12.3919 -10.5169  -9.8125  -8.8051  -6.7261  -6.5105
    -4.1862  -3.7796  -3.2334  -1.8429   0.8228   1.7962   2.1906   3.0865

          k = 0.1667 0.4811 0.0000 ( 11649 PWs)   bands (ev):

   -15.4319 -14.5165 -12.6646 -10.3349  -9.1273  -8.1377  -7.2090  -5.8175
    -4.7551  -4.4354  -4.1350  -2.4492   0.8944   3.0291   3.2376   3.8428

          k = 0.3333 0.5774 0.0000 ( 11628 PWs)   bands (ev):

   -14.9873 -14.9872 -12.9319  -9.4056  -9.4056  -7.9793  -7.8628  -5.1022
    -5.1021  -4.3544  -4.3543  -3.0482   2.6104   2.6104   3.2035   3.2036

     the Fermi energy is    -0.5197 ev

!    total energy              =     -49.98170056 Ry
     estimated scf accuracy    <       0.00000040 Ry
     smearing contrib. (-TS)   =      -0.00073172 Ry
     internal energy E=F+TS    =     -49.98096884 Ry

     The total energy is F=E-TS. E is the sum of the following terms:
     one-electron contribution =    -180.27378599 Ry
     hartree contribution      =      94.81919255 Ry
     xc contribution           =     -23.34111582 Ry
     ewald contribution        =      58.81474043 Ry

     convergence has been achieved in   6 iterations

     Writing all to output data dir ../../outdir/borophene.save/

     init_run     :      6.16s CPU      4.24s WALL (       1 calls)
     electrons    :     62.61s CPU     82.36s WALL (       1 calls)

     Called by init_run:
     wfcinit      :      4.95s CPU      3.13s WALL (       1 calls)
     potinit      :      0.20s CPU      0.15s WALL (       1 calls)
     hinit0       :      0.88s CPU      0.79s WALL (       1 calls)

     Called by electrons:
     c_bands      :     50.11s CPU     72.97s WALL (       6 calls)
     sum_band     :     10.92s CPU      8.13s WALL (       6 calls)
     v_of_rho     :      1.14s CPU      0.80s WALL (       7 calls)
     newd         :      0.49s CPU      0.55s WALL (       7 calls)
     mix_rho      :      0.13s CPU      0.10s WALL (       6 calls)

     Called by c_bands:
     init_us_2    :      0.46s CPU      0.42s WALL (      91 calls)
     init_us_2:cp :      0.45s CPU      0.42s WALL (      91 calls)
     cegterg      :     49.03s CPU     72.10s WALL (      42 calls)

     Called by *egterg:
     cdiaghg      :      0.10s CPU      0.07s WALL (     175 calls)
     h_psi        :     47.73s CPU     84.05s WALL (     182 calls)
     s_psi        :      1.51s CPU      0.98s WALL (     182 calls)
     g_psi        :      0.23s CPU      0.21s WALL (     133 calls)

     Called by h_psi:
     h_psi:calbec :      2.25s CPU      1.43s WALL (     182 calls)
     vloc_psi     :     43.76s CPU     81.53s WALL (     182 calls)
     add_vuspsi   :      1.42s CPU      0.80s WALL (     182 calls)

     General routines
     calbec       :      3.03s CPU      1.89s WALL (     224 calls)
     fft          :      1.02s CPU      0.86s WALL (      77 calls)
     ffts         :      0.04s CPU      0.03s WALL (       6 calls)
     fftw         :     45.54s CPU     84.09s WALL (    4812 calls)

     Parallel routines

     PWSCF        :   1m 8.92s CPU   1m26.81s WALL


   This run was terminated on:  10:41:13   2Jul2025            

=------------------------------------------------------------------------------=
   JOB DONE.
=------------------------------------------------------------------------------=
