
     Program PWSCF v.7.2 starts on  2Jul2025 at 10:38:53 

     This program is part of the open-source Quantum ESPRESSO suite
     for quantum simulation of materials; please cite
         "P. Giannozzi et al., J. Phys.:Condens. Matter 21 395502 (2009);
         "P. Giannozzi et al., J. Phys.:Condens. Matter 29 465901 (2017);
         "P. Giannozzi et al., J. Chem. Phys. 152 154105 (2020);
          URL http://www.quantum-espresso.org", 
     in publications or presentations arising from this work. More details at
     http://www.quantum-espresso.org/quote

     Parallel version (MPI & OpenMP), running on       2 processor cores
     Number of MPI processes:                 1
     Threads/MPI process:                     2

     MPI processes distributed on     1 nodes
     424 MiB available memory on the printing compute node when the environment starts

     Reading input from ../ecut/alpha_40.in

     Current dimensions of program PWSCF are:
     Max number of different atomic species (ntypx) = 10
     Max number of k-points (npk) =  40000
     Max angular momentum in pseudopotentials (lmaxx) =  4
     file B.pbesol-n-rrkjus_psl.1.0.0.UPF: wavefunction(s)  2S renormalized

     IMPORTANT: XC functional enforced from input :
     Exchange-correlation= PBESOL
                           (   1   4  10   8   0   0   0)
     Any further DFT definition will be discarded
     Please, verify this is what you really want


     Subspace diagonalization in iterative solution of the eigenvalue problem:
     a serial algorithm will be used


     G-vector sticks info
     --------------------
     sticks:   dense  smooth     PW     G-vecs:    dense   smooth      PW
     Sum        1003    1003    283                50819    50819    7703

     Using Slab Decomposition



     bravais-lattice index     =            4
     lattice parameter (alat)  =       9.5000  a.u.
     unit-cell volume          =    1485.0171 (a.u.)^3
     number of atoms/cell      =            8
     number of atomic types    =            1
     number of electrons       =        24.00
     number of Kohn-Sham states=           16
     kinetic-energy cutoff     =      40.0000  Ry
     charge density cutoff     =     160.0000  Ry
     scf convergence threshold =      1.0E-06
     mixing beta               =       0.7000
     number of iterations used =            8  plain     mixing
     Exchange-correlation= PBESOL
                           (   1   4  10   8   0   0   0)

     celldm(1)=   9.500000  celldm(2)=   0.000000  celldm(3)=   2.000000
     celldm(4)=   0.000000  celldm(5)=   0.000000  celldm(6)=   0.000000

     crystal axes: (cart. coord. in units of alat)
               a(1) = (   1.000000   0.000000   0.000000 )  
               a(2) = (  -0.500000   0.866025   0.000000 )  
               a(3) = (   0.000000   0.000000   2.000000 )  

     reciprocal axes: (cart. coord. in units 2 pi/alat)
               b(1) = (  1.000000  0.577350 -0.000000 )  
               b(2) = (  0.000000  1.154701  0.000000 )  
               b(3) = (  0.000000 -0.000000  0.500000 )  


     PseudoPot. # 1 for B  read from file:
     ../../pseudo/B.pbesol-n-rrkjus_psl.1.0.0.UPF
     MD5 check sum: a3839a09b1a4e02f2a06a66adc9253fc
     Pseudo is Ultrasoft + core correction, Zval =  3.0
     Generated using &quot;atomic&quot; code by A. Dal Corso  v.6.3MaX
     Using radial grid of 1059 points,  4 beta functions with: 
                l(1) =   0
                l(2) =   0
                l(3) =   1
                l(4) =   1
     Q(r) pseudized with 0 coefficients 


     atomic species   valence    mass     pseudopotential
        B              3.00    10.81100     B ( 1.00)

     24 Sym. Ops., with inversion, found



   Cartesian axes

     site n.     atom                  positions (alat units)
         1           B   tau(   1) = (   0.3333330   0.0000000   0.0000000  )
         2           B   tau(   2) = (   0.6666670   0.0000000   0.0000000  )
         3           B   tau(   3) = (  -0.1666665   0.2886748   0.0000000  )
         4           B   tau(   4) = (   0.1666665   0.2886748   0.0000000  )
         5           B   tau(   5) = (   0.5000005   0.2886748   0.0000000  )
         6           B   tau(   6) = (  -0.3333335   0.5773506   0.0000000  )
         7           B   tau(   7) = (  -0.0000005   0.5773506   0.0000000  )
         8           B   tau(   8) = (   0.3333335   0.5773506   0.0000000  )

     number of k points=     7  Marzari-Vanderbilt smearing, width (Ry)=  0.0200
                       cart. coord. in units 2pi/alat
        k(    1) = (   0.0000000   0.0000000   0.0000000), wk =   0.0555556
        k(    2) = (   0.0000000   0.1924501   0.0000000), wk =   0.3333333
        k(    3) = (   0.0000000   0.3849002   0.0000000), wk =   0.3333333
        k(    4) = (   0.0000000  -0.5773503   0.0000000), wk =   0.1666667
        k(    5) = (   0.1666667   0.2886751   0.0000000), wk =   0.3333333
        k(    6) = (   0.1666667   0.4811252   0.0000000), wk =   0.6666667
        k(    7) = (   0.3333333   0.5773503   0.0000000), wk =   0.1111111

     Dense  grid:    50819 G-vectors     FFT dimensions: (  40,  40,  80)

     Estimated max dynamical RAM per process >      88.34 MB

     Check: negative core charge=   -0.000004

     Initial potential from superposition of free atoms

     starting charge      23.9977, renormalised to      24.0000

     negative rho (up, down):  1.362E-04 0.000E+00
     Starting wfcs are   32 randomized atomic wfcs

     total cpu time spent up to now is        2.3 secs

     per-process dynamical memory:    53.3 Mb

     Self-consistent Calculation

     iteration #  1     ecut=    40.00 Ry     beta= 0.70
     Davidson diagonalization with overlap
     ethr =  1.00E-02,  avg # of iterations =  2.0

     negative rho (up, down):  8.071E-03 0.000E+00

     total cpu time spent up to now is        6.9 secs

     total energy              =     -49.85160792 Ry
     estimated scf accuracy    <       0.74705936 Ry

     iteration #  2     ecut=    40.00 Ry     beta= 0.70
     Davidson diagonalization with overlap
     ethr =  3.11E-03,  avg # of iterations =  2.0

     negative rho (up, down):  1.261E-02 0.000E+00

     total cpu time spent up to now is       11.4 secs

     total energy              =     -49.97524522 Ry
     estimated scf accuracy    <       0.02019123 Ry

     iteration #  3     ecut=    40.00 Ry     beta= 0.70
     Davidson diagonalization with overlap
     ethr =  8.41E-05,  avg # of iterations =  3.7

     negative rho (up, down):  1.400E-02 0.000E+00

     total cpu time spent up to now is       16.2 secs

     total energy              =     -49.98039285 Ry
     estimated scf accuracy    <       0.00602959 Ry

     iteration #  4     ecut=    40.00 Ry     beta= 0.70
     Davidson diagonalization with overlap
     ethr =  2.51E-05,  avg # of iterations =  3.1

     negative rho (up, down):  1.542E-02 0.000E+00

     total cpu time spent up to now is       20.4 secs

     total energy              =     -49.98169819 Ry
     estimated scf accuracy    <       0.00020066 Ry

     iteration #  5     ecut=    40.00 Ry     beta= 0.70
     Davidson diagonalization with overlap
     ethr =  8.36E-07,  avg # of iterations =  6.4

     negative rho (up, down):  1.554E-02 0.000E+00

     total cpu time spent up to now is       15.0 secs

     total energy              =     -49.98172361 Ry
     estimated scf accuracy    <       0.00001649 Ry

     iteration #  6     ecut=    40.00 Ry     beta= 0.70
     Davidson diagonalization with overlap
     ethr =  6.87E-08,  avg # of iterations =  2.1

     negative rho (up, down):  1.555E-02 0.000E+00

     total cpu time spent up to now is       20.1 secs

     End of self-consistent calculation

          k = 0.0000 0.0000 0.0000 (  6363 PWs)   bands (ev):

   -16.2392 -12.1054 -12.0236 -12.0236  -9.7367  -9.7367  -7.6373  -7.0837
    -2.0357  -2.0357  -0.5745  -0.0480  -0.0479   0.2746   0.2746   0.6103

          k = 0.0000 0.1925 0.0000 (  6373 PWs)   bands (ev):

   -16.1146 -13.1243 -12.1256 -11.1336  -9.8268  -9.4355  -7.1572  -6.8901
    -3.1655  -2.9917  -2.1369  -0.7728   0.0101   1.3775   1.5287   1.7157

          k = 0.0000 0.3849 0.0000 (  6348 PWs)   bands (ev):

   -15.7621 -14.0820 -12.2911 -10.9489  -9.2252  -8.7489  -6.6769  -6.3304
    -4.6679  -3.9429  -3.7644  -1.3634  -0.3443   2.8036   3.0222   3.3651

          k = 0.0000-0.5774 0.0000 (  6350 PWs)   bands (ev):

   -15.4175 -14.6361 -12.3610 -11.0224  -8.5649  -8.2895  -6.9448  -5.7321
    -5.4072  -4.7296  -3.9976  -1.5639  -0.4915   3.5798   3.7445   3.9854

          k = 0.1667 0.2887 0.0000 (  6345 PWs)   bands (ev):

   -15.8733 -13.8152 -12.4139 -10.5431  -9.8369  -8.8329  -6.7534  -6.5105
    -4.2107  -3.8059  -3.2357  -1.8469   0.8184   1.7873   2.1683   2.6092

          k = 0.1667 0.4811 0.0000 (  6329 PWs)   bands (ev):

   -15.4492 -14.5358 -12.6853 -10.3596  -9.1552  -8.1687  -7.2354  -5.8178
    -4.7799  -4.4370  -4.1606  -2.4532   0.8884   3.0061   3.2290   3.4592

          k = 0.3333 0.5774 0.0000 (  6354 PWs)   bands (ev):

   -15.0056 -15.0055 -12.9516  -9.4330  -9.4330  -8.0029  -7.8953  -5.1030
    -5.1029  -4.3802  -4.3802  -3.0524   2.6048   2.6048   3.1860   3.1860

     the Fermi energy is    -0.5251 ev

!    total energy              =     -49.98172810 Ry
     estimated scf accuracy    <       0.00000047 Ry
     smearing contrib. (-TS)   =      -0.00075655 Ry
     internal energy E=F+TS    =     -49.98097155 Ry

     The total energy is F=E-TS. E is the sum of the following terms:
     one-electron contribution =    -180.23502237 Ry
     hartree contribution      =      94.78357615 Ry
     xc contribution           =     -23.34426567 Ry
     ewald contribution        =      58.81474034 Ry

     convergence has been achieved in   6 iterations

     Writing all to output data dir ../../outdir/borophene.save/

     init_run     :      2.89s CPU      2.26s WALL (       1 calls)
     electrons    :     39.15s CPU     17.81s WALL (       1 calls)

     Called by init_run:
     wfcinit      :      2.21s CPU      1.62s WALL (       1 calls)
     potinit      :      0.07s CPU      0.05s WALL (       1 calls)
     hinit0       :      0.56s CPU      0.53s WALL (       1 calls)

     Called by electrons:
     c_bands      :     30.84s CPU     24.26s WALL (       6 calls)
     sum_band     :      7.47s CPU     -7.16s WALL (       6 calls)
     v_of_rho     :      0.58s CPU      0.48s WALL (       7 calls)
     newd         :      0.26s CPU      0.23s WALL (       7 calls)
     mix_rho      :      0.06s CPU      0.05s WALL (       6 calls)

     Called by c_bands:
     init_us_2    :      0.26s CPU      0.21s WALL (      91 calls)
     init_us_2:cp :      0.25s CPU      0.21s WALL (      91 calls)
     cegterg      :     30.37s CPU     23.86s WALL (      42 calls)

     Called by *egterg:
     cdiaghg      :      0.10s CPU      0.07s WALL (     178 calls)
     h_psi        :     29.94s CPU     23.57s WALL (     185 calls)
     s_psi        :      0.58s CPU      0.38s WALL (     185 calls)
     g_psi        :      0.11s CPU      0.11s WALL (     136 calls)

     Called by h_psi:
     h_psi:calbec :      0.94s CPU      0.64s WALL (     185 calls)
     vloc_psi     :     28.32s CPU     22.48s WALL (     185 calls)
     add_vuspsi   :      0.51s CPU      0.31s WALL (     185 calls)

     General routines
     calbec       :      1.24s CPU    -12.45s WALL (     227 calls)
     fft          :      0.65s CPU      0.62s WALL (      77 calls)
     ffts         :      0.02s CPU      0.02s WALL (       6 calls)
     fftw         :     32.61s CPU     26.38s WALL (    4862 calls)

     Parallel routines

     PWSCF        :     42.12s CPU     20.21s WALL


   This run was terminated on:  10:39:13   2Jul2025            

=------------------------------------------------------------------------------=
   JOB DONE.
=------------------------------------------------------------------------------=
