
     Program PWSCF v.7.2 starts on 16Jul2025 at 17:22: 9 

     This program is part of the open-source Quantum ESPRESSO suite
     for quantum simulation of materials; please cite
         "P. Giannozzi et al., J. Phys.:Condens. Matter 21 395502 (2009);
         "P. Giannozzi et al., J. Phys.:Condens. Matter 29 465901 (2017);
         "P. Giannozzi et al., J. Chem. Phys. 152 154105 (2020);
          URL http://www.quantum-espresso.org", 
     in publications or presentations arising from this work. More details at
     http://www.quantum-espresso.org/quote

     Parallel version (MPI & OpenMP), running on       2 processor cores
     Number of MPI processes:                 1
     Threads/MPI process:                     2

     MPI processes distributed on     1 nodes
     790 MiB available memory on the printing compute node when the environment starts

     Reading input from alpha.scf.in

     Current dimensions of program PWSCF are:
     Max number of different atomic species (ntypx) = 10
     Max number of k-points (npk) =  40000
     Max angular momentum in pseudopotentials (lmaxx) =  4
     file B.pbesol-n-rrkjus_psl.1.0.0.UPF: wavefunction(s)  2S renormalized

     IMPORTANT: XC functional enforced from input :
     Exchange-correlation= PBESOL
                           (   1   4  10   8   0   0   0)
     Any further DFT definition will be discarded
     Please, verify this is what you really want


     Subspace diagonalization in iterative solution of the eigenvalue problem:
     a serial algorithm will be used


     G-vector sticks info
     --------------------
     sticks:   dense  smooth     PW     G-vecs:    dense   smooth      PW
     Sum        1777    1777    499               120595   120595   17639

     Using Slab Decomposition



     bravais-lattice index     =            4
     lattice parameter (alat)  =       9.5830  a.u.
     unit-cell volume          =    1524.2812 (a.u.)^3
     number of atoms/cell      =            8
     number of atomic types    =            1
     number of electrons       =        24.00
     number of Kohn-Sham states=           16
     kinetic-energy cutoff     =      70.0000  Ry
     charge density cutoff     =     280.0000  Ry
     scf convergence threshold =      1.0E-06
     mixing beta               =       0.7000
     number of iterations used =            8  plain     mixing
     Exchange-correlation= PBESOL
                           (   1   4  10   8   0   0   0)

     celldm(1)=   9.583000  celldm(2)=   0.000000  celldm(3)=   2.000000
     celldm(4)=   0.000000  celldm(5)=   0.000000  celldm(6)=   0.000000

     crystal axes: (cart. coord. in units of alat)
               a(1) = (   1.000000   0.000000   0.000000 )  
               a(2) = (  -0.500000   0.866025   0.000000 )  
               a(3) = (   0.000000   0.000000   2.000000 )  

     reciprocal axes: (cart. coord. in units 2 pi/alat)
               b(1) = (  1.000000  0.577350 -0.000000 )  
               b(2) = (  0.000000  1.154701  0.000000 )  
               b(3) = (  0.000000 -0.000000  0.500000 )  


     PseudoPot. # 1 for B  read from file:
     ../../pseudo/B.pbesol-n-rrkjus_psl.1.0.0.UPF
     MD5 check sum: a3839a09b1a4e02f2a06a66adc9253fc
     Pseudo is Ultrasoft + core correction, Zval =  3.0
     Generated using &quot;atomic&quot; code by A. Dal Corso  v.6.3MaX
     Using radial grid of 1059 points,  4 beta functions with: 
                l(1) =   0
                l(2) =   0
                l(3) =   1
                l(4) =   1
     Q(r) pseudized with 0 coefficients 


     atomic species   valence    mass     pseudopotential
        B              3.00    10.81100     B ( 1.00)

     Starting magnetic structure 
     atomic species   magnetization
        B            1.000

     24 Sym. Ops., with inversion, found



   Cartesian axes

     site n.     atom                  positions (alat units)
         1           B   tau(   1) = (   0.3333330   0.0000000   0.0000000  )
         2           B   tau(   2) = (   0.6666670   0.0000000   0.0000000  )
         3           B   tau(   3) = (  -0.1666665   0.2886748   0.0000000  )
         4           B   tau(   4) = (   0.1666665   0.2886748   0.0000000  )
         5           B   tau(   5) = (   0.5000005   0.2886748   0.0000000  )
         6           B   tau(   6) = (  -0.3333335   0.5773506   0.0000000  )
         7           B   tau(   7) = (  -0.0000005   0.5773506   0.0000000  )
         8           B   tau(   8) = (   0.3333335   0.5773506   0.0000000  )

     number of k points=    12  Marzari-Vanderbilt smearing, width (Ry)=  0.0350
                       cart. coord. in units 2pi/alat
        k(    1) = (   0.0000000   0.0000000   0.0000000), wk =   0.0123457
        k(    2) = (   0.0000000   0.1283001   0.0000000), wk =   0.0740741
        k(    3) = (   0.0000000   0.2566001   0.0000000), wk =   0.0740741
        k(    4) = (   0.0000000   0.3849002   0.0000000), wk =   0.0740741
        k(    5) = (   0.0000000   0.5132002   0.0000000), wk =   0.0740741
        k(    6) = (   0.1111111   0.1924501   0.0000000), wk =   0.0740741
        k(    7) = (   0.1111111   0.3207501   0.0000000), wk =   0.1481481
        k(    8) = (   0.1111111   0.4490502   0.0000000), wk =   0.1481481
        k(    9) = (   0.1111111   0.5773503   0.0000000), wk =   0.0740741
        k(   10) = (   0.2222222   0.3849002   0.0000000), wk =   0.0740741
        k(   11) = (   0.2222222   0.5132002   0.0000000), wk =   0.1481481
        k(   12) = (   0.3333333   0.5773503   0.0000000), wk =   0.0246914

     Dense  grid:   120595 G-vectors     FFT dimensions: (  54,  54, 108)

     Estimated max dynamical RAM per process >     323.39 MB
     Generating pointlists ...
     new r_m :   0.1375 (alat units)  1.3177 (a.u.) for type    1

     Initial potential from superposition of free atoms

     starting charge      23.9977, renormalised to      24.0000

     negative rho (up, down):  4.520E-05 6.245E-17
     Starting wfcs are   32 randomized atomic wfcs

     total cpu time spent up to now is       20.1 secs

     per-process dynamical memory:   197.7 Mb

     Self-consistent Calculation

     iteration #  1     ecut=    70.00 Ry     beta= 0.70
     Davidson diagonalization with overlap
     ethr =  1.00E-02,  avg # of iterations =  2.3

     negative rho (up, down):  1.873E-04 5.023E-04

     total cpu time spent up to now is       51.1 secs

     total energy              =     -48.80931388 Ry
     estimated scf accuracy    <       1.37969524 Ry

     total magnetization       =     5.26 Bohr mag/cell
     absolute magnetization    =     5.26 Bohr mag/cell

     iteration #  2     ecut=    70.00 Ry     beta= 0.70
     Davidson diagonalization with overlap
     ethr =  5.75E-03,  avg # of iterations =  2.0

     negative rho (up, down):  3.004E-04 3.046E-04

     total cpu time spent up to now is       86.3 secs

     total energy              =     -49.84914207 Ry
     estimated scf accuracy    <       0.15030594 Ry

     total magnetization       =     1.51 Bohr mag/cell
     absolute magnetization    =     1.62 Bohr mag/cell

     iteration #  3     ecut=    70.00 Ry     beta= 0.70
     Davidson diagonalization with overlap
     ethr =  6.26E-04,  avg # of iterations =  1.5

     negative rho (up, down):  4.295E-04 3.707E-04

     total cpu time spent up to now is      120.2 secs

     total energy              =     -49.97105506 Ry
     estimated scf accuracy    <       0.02331860 Ry

     total magnetization       =     0.59 Bohr mag/cell
     absolute magnetization    =     0.68 Bohr mag/cell

     iteration #  4     ecut=    70.00 Ry     beta= 0.70
     Davidson diagonalization with overlap
     ethr =  9.72E-05,  avg # of iterations =  3.0

     negative rho (up, down):  4.445E-04 3.966E-04

     total cpu time spent up to now is      149.3 secs

     total energy              =     -49.98688075 Ry
     estimated scf accuracy    <       0.00211421 Ry

     total magnetization       =     0.08 Bohr mag/cell
     absolute magnetization    =     0.13 Bohr mag/cell

     iteration #  5     ecut=    70.00 Ry     beta= 0.70
     Davidson diagonalization with overlap
     ethr =  8.81E-06,  avg # of iterations =  5.5

     negative rho (up, down):  4.243E-04 4.135E-04

     total cpu time spent up to now is      194.3 secs

     total energy              =     -49.98790915 Ry
     estimated scf accuracy    <       0.00026100 Ry

     total magnetization       =     0.02 Bohr mag/cell
     absolute magnetization    =     0.05 Bohr mag/cell

     iteration #  6     ecut=    70.00 Ry     beta= 0.70
     Davidson diagonalization with overlap
     ethr =  1.09E-06,  avg # of iterations =  4.1

     negative rho (up, down):  4.198E-04 4.191E-04

     total cpu time spent up to now is      230.8 secs

     total energy              =     -49.98805487 Ry
     estimated scf accuracy    <       0.00002552 Ry

     total magnetization       =     0.01 Bohr mag/cell
     absolute magnetization    =     0.02 Bohr mag/cell

     iteration #  7     ecut=    70.00 Ry     beta= 0.70
     Davidson diagonalization with overlap
     ethr =  1.06E-07,  avg # of iterations =  2.7

     negative rho (up, down):  4.191E-04 4.188E-04

     total cpu time spent up to now is      324.2 secs

     total energy              =     -49.98806931 Ry
     estimated scf accuracy    <       0.00000610 Ry

     total magnetization       =     0.00 Bohr mag/cell
     absolute magnetization    =     0.01 Bohr mag/cell

     iteration #  8     ecut=    70.00 Ry     beta= 0.70
     Davidson diagonalization with overlap
     ethr =  2.54E-08,  avg # of iterations =  2.6

     negative rho (up, down):  4.191E-04 4.189E-04

     Magnetic moment per site  (integrated on atomic sphere of radius R)
     atom   1 (R=0.137)  charge=  1.3051  magn=  0.0000
     atom   2 (R=0.137)  charge=  1.3051  magn=  0.0000
     atom   3 (R=0.137)  charge=  1.3051  magn=  0.0000
     atom   4 (R=0.137)  charge=  1.3051  magn=  0.0000
     atom   5 (R=0.137)  charge=  1.3040  magn= -0.0001
     atom   6 (R=0.137)  charge=  1.3051  magn=  0.0000
     atom   7 (R=0.137)  charge=  1.3040  magn= -0.0001
     atom   8 (R=0.137)  charge=  1.3051  magn=  0.0000

     total cpu time spent up to now is      350.5 secs

     End of self-consistent calculation

 ------ SPIN UP ------------


          k = 0.0000 0.0000 0.0000 ( 15117 PWs)   bands (ev):

   -16.1948 -12.0843 -12.0038 -12.0038  -9.7609  -9.7609  -7.6330  -7.0618
    -2.1462  -2.1462  -0.6696  -0.1593  -0.1593   0.1155   0.1155   0.4836

          k = 0.0000 0.1283 0.0000 ( 15092 PWs)   bands (ev):

   -16.1396 -12.7526 -12.0551 -11.3794  -9.8289  -9.6197  -7.3954  -6.9771
    -2.7522  -2.6610  -1.6201  -0.6036  -0.0022   0.6843   0.7717   1.0937

          k = 0.0000 0.2566 0.0000 ( 15062 PWs)   bands (ev):

   -15.9771 -13.4355 -12.1687 -10.9687  -9.7364  -9.2482  -6.9226  -6.7257
    -3.7908  -3.5011  -2.7717  -1.1043  -0.2179   1.7277   1.9517   2.0885

          k = 0.0000 0.3849 0.0000 ( 15056 PWs)   bands (ev):

   -15.7217 -14.0525 -12.2778 -10.9454  -9.2181  -8.7634  -6.6827  -6.3225
    -4.7553  -4.0329  -3.8024  -1.4502  -0.4391   2.7563   3.1283   3.2458

          k = 0.0000 0.5132 0.0000 ( 15070 PWs)   bands (ev):

   -15.4408 -14.5187 -12.3408 -11.0080  -8.6587  -8.3624  -6.8858  -5.8501
    -5.3995  -4.5945  -4.0926  -1.6249  -0.5653   3.3197   3.6775   3.8441

          k = 0.1111 0.1925 0.0000 ( 15099 PWs)   bands (ev):

   -16.0305 -13.2472 -12.1818 -10.9531  -9.8936  -9.3243  -7.0488  -6.8088
    -3.5345  -3.2502  -2.4190  -1.2588   0.3531   1.2283   1.2900   1.7667

          k = 0.1111 0.3208 0.0000 ( 15098 PWs)   bands (ev):

   -15.8195 -13.8240 -12.3671 -10.6581  -9.6984  -8.8424  -6.7433  -6.4793
    -4.3649  -3.9158  -3.3705  -1.8119   0.3559   2.0278   2.0560   3.0855

          k = 0.1111 0.4491 0.0000 ( 15081 PWs)   bands (ev):

   -15.5339 -14.3506 -12.5043 -10.6588  -9.1297  -8.3661  -6.9366  -6.0188
    -4.9545  -4.2540  -4.1704  -2.1228   0.2196   2.7631   3.1703   3.5436

          k = 0.1111 0.5774 0.0000 ( 15082 PWs)   bands (ev):

   -15.3342 -14.6336 -12.5532 -10.6834  -8.7547  -8.1450  -7.2407  -5.6671
    -5.2160  -4.7528  -4.1288  -2.2234   0.1637   3.1857   3.2486   4.1796

          k = 0.2222 0.3849 0.0000 ( 15061 PWs)   bands (ev):

   -15.5692 -14.2605 -12.6458 -10.1688  -9.6434  -8.3469  -7.0031  -6.0823
    -4.5483  -4.3417  -4.0270  -2.4935   1.1525   2.0977   2.3812   3.4554

          k = 0.2222 0.5132 0.0000 ( 15072 PWs)   bands (ev):

   -15.2737 -14.6581 -12.8103 -10.0259  -9.2017  -8.0145  -7.5995  -5.5962
    -4.7100  -4.6706  -4.3097  -2.8259   1.3459   2.7158   2.9407   3.2909

          k = 0.3333 0.5774 0.0000 ( 15075 PWs)   bands (ev):

   -14.9708 -14.9707 -12.9341  -9.4383  -9.4382  -8.0165  -7.8871  -5.1180
    -5.1179  -4.4564  -4.4564  -3.0988   2.4412   2.4413   2.8724   2.8725

 ------ SPIN DOWN ----------


          k = 0.0000 0.0000 0.0000 ( 15117 PWs)   bands (ev):

   -16.1950 -12.0850 -12.0040 -12.0040  -9.7610  -9.7610  -7.6334  -7.0613
    -2.1466  -2.1466  -0.6706  -0.1582  -0.1582   0.1151   0.1152   0.4852

          k = 0.0000 0.1283 0.0000 ( 15092 PWs)   bands (ev):

   -16.1398 -12.7530 -12.0553 -11.3798  -9.8291  -9.6198  -7.3958  -6.9765
    -2.7525  -2.6614  -1.6200  -0.6023  -0.0014   0.6839   0.7714   1.0953

          k = 0.0000 0.2566 0.0000 ( 15062 PWs)   bands (ev):

   -15.9773 -13.4358 -12.1689 -10.9690  -9.7367  -9.2484  -6.9230  -6.7252
    -3.7911  -3.5014  -2.7713  -1.1029  -0.2171   1.7273   1.9514   2.0901

          k = 0.0000 0.3849 0.0000 ( 15056 PWs)   bands (ev):

   -15.7219 -14.0528 -12.2779 -10.9456  -9.2185  -8.7637  -6.6831  -6.3220
    -4.7555  -4.0332  -3.8020  -1.4489  -0.4384   2.7562   3.1282   3.2473

          k = 0.0000 0.5132 0.0000 ( 15070 PWs)   bands (ev):

   -15.4411 -14.5190 -12.3409 -11.0082  -8.6592  -8.3628  -6.8863  -5.8496
    -5.3996  -4.5939  -4.0929  -1.6236  -0.5646   3.3198   3.6773   3.8436

          k = 0.1111 0.1925 0.0000 ( 15099 PWs)   bands (ev):

   -16.0307 -13.2475 -12.1819 -10.9535  -9.8938  -9.3245  -7.0492  -6.8083
    -3.5348  -3.2505  -2.4188  -1.2575   0.3539   1.2296   1.2897   1.7664

          k = 0.1111 0.3208 0.0000 ( 15098 PWs)   bands (ev):

   -15.8197 -13.8243 -12.3672 -10.6584  -9.6987  -8.8427  -6.7438  -6.4788
    -4.3652  -3.9161  -3.3702  -1.8106   0.3567   2.0290   2.0557   3.0849

          k = 0.1111 0.4491 0.0000 ( 15081 PWs)   bands (ev):

   -15.5341 -14.3508 -12.5043 -10.6590  -9.1301  -8.3666  -6.9370  -6.0184
    -4.9547  -4.2535  -4.1706  -2.1215   0.2204   2.7630   3.1714   3.5437

          k = 0.1111 0.5774 0.0000 ( 15082 PWs)   bands (ev):

   -15.3344 -14.6339 -12.5532 -10.6837  -8.7552  -8.1455  -7.2410  -5.6667
    -5.2161  -4.7523  -4.1291  -2.2222   0.1645   3.1857   3.2487   4.1796

          k = 0.2222 0.3849 0.0000 ( 15061 PWs)   bands (ev):

   -15.5694 -14.2608 -12.6458 -10.1692  -9.6437  -8.3474  -7.0036  -6.0818
    -4.5485  -4.3420  -4.0267  -2.4921   1.1533   2.0988   2.3811   3.4551

          k = 0.2222 0.5132 0.0000 ( 15072 PWs)   bands (ev):

   -15.2739 -14.6584 -12.8103 -10.0263  -9.2021  -8.0150  -7.5999  -5.5958
    -4.7102  -4.6702  -4.3100  -2.8245   1.3467   2.7159   2.9416   3.2907

          k = 0.3333 0.5774 0.0000 ( 15075 PWs)   bands (ev):

   -14.9710 -14.9710 -12.9341  -9.4387  -9.4386  -8.0168  -7.8877  -5.1176
    -5.1176  -4.4567  -4.4567  -3.0974   2.4420   2.4420   2.8724   2.8724

     the Fermi energy is    -0.6142 ev

!    total energy              =     -49.98807193 Ry
     estimated scf accuracy    <       0.00000030 Ry
     smearing contrib. (-TS)   =       0.00021063 Ry
     internal energy E=F+TS    =     -49.98828255 Ry

     The total energy is F=E-TS. E is the sum of the following terms:
     one-electron contribution =    -179.30371813 Ry
     hartree contribution      =      94.21647431 Ry
     xc contribution           =     -23.20637465 Ry
     ewald contribution        =      58.30533592 Ry

     total magnetization       =     0.00 Bohr mag/cell
     absolute magnetization    =     0.00 Bohr mag/cell

     convergence has been achieved in   8 iterations

     Writing all to output data dir ../../outdir/borophene.save/

     init_run     :     29.79s CPU     20.01s WALL (       1 calls)
     electrons    :    503.05s CPU    330.39s WALL (       1 calls)

     Called by init_run:
     wfcinit      :     27.72s CPU     18.13s WALL (       1 calls)
     potinit      :      0.58s CPU      0.47s WALL (       1 calls)
     hinit0       :      1.18s CPU      1.03s WALL (       1 calls)

     Called by electrons:
     c_bands      :    408.91s CPU    263.06s WALL (       8 calls)
     sum_band     :     85.41s CPU     60.45s WALL (       8 calls)
     v_of_rho     :      6.30s CPU      4.15s WALL (       9 calls)
     newd         :      1.89s CPU      2.19s WALL (       9 calls)
     mix_rho      :      0.99s CPU      0.98s WALL (       8 calls)

     Called by c_bands:
     init_us_2    :      4.50s CPU      3.98s WALL (     408 calls)
     init_us_2:cp :      4.48s CPU      3.97s WALL (     408 calls)
     cegterg      :    400.53s CPU    268.15s WALL (     192 calls)

     Called by *egterg:
     cdiaghg      :      0.65s CPU      0.53s WALL (     758 calls)
     h_psi        :    384.61s CPU    288.84s WALL (     782 calls)
     s_psi        :     10.75s CPU     -3.64s WALL (     782 calls)
     g_psi        :      1.15s CPU      1.15s WALL (     566 calls)

     Called by h_psi:
     h_psi:calbec :     11.50s CPU     10.14s WALL (     782 calls)
     vloc_psi     :    361.49s CPU    271.14s WALL (     782 calls)
     add_vuspsi   :      9.81s CPU      5.82s WALL (     782 calls)

     General routines
     calbec       :     15.23s CPU     13.55s WALL (     974 calls)
     fft          :      2.81s CPU      1.93s WALL (     187 calls)
     ffts         :      0.21s CPU      0.15s WALL (      16 calls)
     fftw         :    345.80s CPU    262.61s WALL (   21418 calls)

     Parallel routines

     PWSCF        :   8m53.12s CPU   5m51.19s WALL


   This run was terminated on:  17:28: 0  16Jul2025            

=------------------------------------------------------------------------------=
   JOB DONE.
=------------------------------------------------------------------------------=
