
     Program PWSCF v.7.2 starts on 30Jul2025 at 18:44:37 

     This program is part of the open-source Quantum ESPRESSO suite
     for quantum simulation of materials; please cite
         "P. Giannozzi et al., J. Phys.:Condens. Matter 21 395502 (2009);
         "P. Giannozzi et al., J. Phys.:Condens. Matter 29 465901 (2017);
         "P. Giannozzi et al., J. Chem. Phys. 152 154105 (2020);
          URL http://www.quantum-espresso.org", 
     in publications or presentations arising from this work. More details at
     http://www.quantum-espresso.org/quote

     Parallel version (MPI & OpenMP), running on       2 processor cores
     Number of MPI processes:                 1
     Threads/MPI process:                     2

     MPI processes distributed on     1 nodes
     995 MiB available memory on the printing compute node when the environment starts

     Reading input from alpha.scf.in

     Current dimensions of program PWSCF are:
     Max number of different atomic species (ntypx) = 10
     Max number of k-points (npk) =  40000
     Max angular momentum in pseudopotentials (lmaxx) =  4
     file B.pbesol-n-rrkjus_psl.1.0.0.UPF: wavefunction(s)  2S renormalized

     Subspace diagonalization in iterative solution of the eigenvalue problem:
     a serial algorithm will be used


     G-vector sticks info
     --------------------
     sticks:   dense  smooth     PW     G-vecs:    dense   smooth      PW
     Sum        1357    1357    379               149567   149567   22271

     Using Slab Decomposition



     bravais-lattice index     =            4
     lattice parameter (alat)  =       9.0360  a.u.
     unit-cell volume          =    2382.6030 (a.u.)^3
     number of atoms/cell      =           14
     number of atomic types    =            2
     number of electrons       =       114.00
     number of Kohn-Sham states=           68
     kinetic-energy cutoff     =      60.0000  Ry
     charge density cutoff     =     240.0000  Ry
     scf convergence threshold =      1.0E-06
     mixing beta               =       0.7000
     number of iterations used =            8  plain     mixing
     Exchange-correlation= SLA  PW   PSX  PSC
                           (   1   4  10   8   0   0   0)

     celldm(1)=   9.036000  celldm(2)=   0.000000  celldm(3)=   3.729000
     celldm(4)=   0.000000  celldm(5)=   0.000000  celldm(6)=   0.000000

     crystal axes: (cart. coord. in units of alat)
               a(1) = (   1.000000   0.000000   0.000000 )  
               a(2) = (  -0.500000   0.866025   0.000000 )  
               a(3) = (   0.000000   0.000000   3.729000 )  

     reciprocal axes: (cart. coord. in units 2 pi/alat)
               b(1) = (  1.000000  0.577350 -0.000000 )  
               b(2) = (  0.000000  1.154701  0.000000 )  
               b(3) = (  0.000000 -0.000000  0.268168 )  


     PseudoPot. # 1 for B  read from file:
     ../../pseudo/B.pbesol-n-rrkjus_psl.1.0.0.UPF
     MD5 check sum: a3839a09b1a4e02f2a06a66adc9253fc
     Pseudo is Ultrasoft + core correction, Zval =  3.0
     Generated using &quot;atomic&quot; code by A. Dal Corso  v.6.3MaX
     Using radial grid of 1059 points,  4 beta functions with: 
                l(1) =   0
                l(2) =   0
                l(3) =   1
                l(4) =   1
     Q(r) pseudized with 0 coefficients 


     PseudoPot. # 2 for Re read from file:
     ../../pseudo/re_pbesol_v1.2.uspp.F.UPF
     MD5 check sum: aaf9138663fa2d46e1797bae542d0e3d
     Pseudo is Ultrasoft + core correction, Zval = 15.0
     Generated by new atomic code, or converted to UPF format
     Using radial grid of  981 points,  8 beta functions with: 
                l(1) =   0
                l(2) =   0
                l(3) =   1
                l(4) =   1
                l(5) =   2
                l(6) =   2
                l(7) =   3
                l(8) =   3
     Q(r) pseudized with  8 coefficients,  rinner =    1.150   1.150   1.150
                                                       1.150   1.150   1.150
                                                       1.150

     atomic species   valence    mass     pseudopotential
        B              3.00    10.81100     B ( 1.00)
        Re            15.00   186.20700     Re( 1.00)

      6 Sym. Ops. (no inversion) found



   Cartesian axes

     site n.     atom                  positions (alat units)
         1           Re  tau(   1) = (   0.3333330   0.0000000   0.0000000  )
         2           Re  tau(   2) = (  -0.1666665   0.2886748   0.0000000  )
         3           Re  tau(   3) = (   0.3333335   0.5773506   0.0000000  )
         4           Re  tau(   4) = (   0.0000000   0.0000000   0.4598000  )
         5           Re  tau(   5) = (   0.5000005   0.2886748   0.4321867  )
         6           Re  tau(   6) = (  -0.0000005   0.5773506   0.4321867  )
         7           B   tau(   7) = (   0.3335585   0.0000000   0.8206364  )
         8           B   tau(   8) = (   0.6788599   0.0000000   0.8910164  )
         9           B   tau(   9) = (  -0.1667792   0.2888701   0.8206364  )
        10           B   tau(  10) = (   0.1605701   0.2781155   0.8910164  )
        11           B   tau(  11) = (   0.5000005   0.2886748   0.9506643  )
        12           B   tau(  12) = (  -0.3394299   0.5879099   0.8910164  )
        13           B   tau(  13) = (  -0.0000005   0.5773506   0.9506643  )
        14           B   tau(  14) = (   0.3332208   0.5771553   0.8206364  )

     number of k points=     7  Marzari-Vanderbilt smearing, width (Ry)=  0.0200
                       cart. coord. in units 2pi/alat
        k(    1) = (   0.0000000   0.0000000   0.0000000), wk =   0.0555556
        k(    2) = (   0.0000000   0.1924501   0.0000000), wk =   0.3333333
        k(    3) = (   0.0000000   0.3849002   0.0000000), wk =   0.3333333
        k(    4) = (   0.0000000  -0.5773503   0.0000000), wk =   0.1666667
        k(    5) = (   0.1666667   0.2886751   0.0000000), wk =   0.3333333
        k(    6) = (   0.1666667   0.4811252   0.0000000), wk =   0.6666667
        k(    7) = (   0.3333333   0.5773503   0.0000000), wk =   0.1111111

     Dense  grid:   149567 G-vectors     FFT dimensions: (  45,  45, 180)

     Estimated max dynamical RAM per process >       1.57 GB

     Check: negative core charge=   -0.000001

     Initial potential from superposition of free atoms

     starting charge     110.9975, renormalised to     114.0000

     negative rho (up, down):  7.971E-01 0.000E+00
     Starting wfcs are  110 randomized atomic wfcs

     total cpu time spent up to now is       20.0 secs

     per-process dynamical memory:   308.1 Mb

     Self-consistent Calculation

     iteration #  1     ecut=    60.00 Ry     beta= 0.70
     Davidson diagonalization with overlap
     ethr =  1.00E-02,  avg # of iterations =  2.0

     negative rho (up, down):  7.885E-01 0.000E+00

     total cpu time spent up to now is       40.5 secs

     total energy              =   -1163.59372222 Ry
     estimated scf accuracy    <      34.32584943 Ry

     iteration #  2     ecut=    60.00 Ry     beta= 0.70
     Davidson diagonalization with overlap
     ethr =  1.00E-02,  avg # of iterations = 12.7

     negative rho (up, down):  7.863E-01 0.000E+00

     total cpu time spent up to now is      109.0 secs

     total energy              =   -1077.24943692 Ry
     estimated scf accuracy    <    2575.87086031 Ry

     iteration #  3     ecut=    60.00 Ry     beta= 0.70
     Davidson diagonalization with overlap
     ethr =  1.00E-02,  avg # of iterations =  8.7

     negative rho (up, down):  7.775E-01 0.000E+00

     total cpu time spent up to now is      261.0 secs

     total energy              =   -1183.50680580 Ry
     estimated scf accuracy    <     227.81855258 Ry

     iteration #  4     ecut=    60.00 Ry     beta= 0.70
     Davidson diagonalization with overlap
     ethr =  1.00E-02,  avg # of iterations =  6.7

     negative rho (up, down):  7.832E-01 0.000E+00

     total cpu time spent up to now is      360.2 secs

     total energy              =   -1190.50089994 Ry
     estimated scf accuracy    <      25.73392131 Ry

     iteration #  5     ecut=    60.00 Ry     beta= 0.70
     Davidson diagonalization with overlap
     ethr =  1.00E-02,  avg # of iterations =  4.7

     negative rho (up, down):  7.951E-01 0.000E+00

     total cpu time spent up to now is      429.1 secs

     total energy              =   -1191.64656978 Ry
     estimated scf accuracy    <       0.50124324 Ry

     iteration #  6     ecut=    60.00 Ry     beta= 0.70
     Davidson diagonalization with overlap
     ethr =  4.40E-04,  avg # of iterations = 10.1

     negative rho (up, down):  7.952E-01 0.000E+00

     total cpu time spent up to now is      575.6 secs

     total energy              =   -1191.82949836 Ry
     estimated scf accuracy    <       1.65404195 Ry

     iteration #  7     ecut=    60.00 Ry     beta= 0.70
     Davidson diagonalization with overlap
     ethr =  4.40E-04,  avg # of iterations =  2.1

     negative rho (up, down):  7.967E-01 0.000E+00

     total cpu time spent up to now is      658.8 secs

     total energy              =   -1191.89251206 Ry
     estimated scf accuracy    <       0.10768240 Ry

     iteration #  8     ecut=    60.00 Ry     beta= 0.70
     Davidson diagonalization with overlap
     ethr =  9.45E-05,  avg # of iterations =  3.3

     negative rho (up, down):  8.002E-01 0.000E+00

     total cpu time spent up to now is      746.2 secs

     total energy              =   -1191.91171074 Ry
     estimated scf accuracy    <       0.17565797 Ry

     iteration #  9     ecut=    60.00 Ry     beta= 0.70
     Davidson diagonalization with overlap
     ethr =  9.45E-05,  avg # of iterations =  1.0

     negative rho (up, down):  8.015E-01 0.000E+00

     total cpu time spent up to now is      790.4 secs

     total energy              =   -1191.89990701 Ry
     estimated scf accuracy    <       0.13914865 Ry

     iteration # 10     ecut=    60.00 Ry     beta= 0.70
     Davidson diagonalization with overlap
     ethr =  9.45E-05,  avg # of iterations =  1.1

     negative rho (up, down):  8.013E-01 0.000E+00

     total cpu time spent up to now is      868.6 secs

     total energy              =   -1191.90753252 Ry
     estimated scf accuracy    <       0.00147320 Ry

     iteration # 11     ecut=    60.00 Ry     beta= 0.70
     Davidson diagonalization with overlap
     c_bands:  1 eigenvalues not converged
     ethr =  1.29E-06,  avg # of iterations = 11.6

     negative rho (up, down):  8.015E-01 0.000E+00

     total cpu time spent up to now is     1030.9 secs

     total energy              =   -1191.90795986 Ry
     estimated scf accuracy    <       0.00088036 Ry

     iteration # 12     ecut=    60.00 Ry     beta= 0.70
     Davidson diagonalization with overlap
     ethr =  7.72E-07,  avg # of iterations =  1.1

     negative rho (up, down):  8.017E-01 0.000E+00

     total cpu time spent up to now is     1192.8 secs

     total energy              =   -1191.90797119 Ry
     estimated scf accuracy    <       0.00010290 Ry

     iteration # 13     ecut=    60.00 Ry     beta= 0.70
     Davidson diagonalization with overlap
     ethr =  9.03E-08,  avg # of iterations =  4.9

     negative rho (up, down):  8.017E-01 0.000E+00

     total cpu time spent up to now is     1332.9 secs

     total energy              =   -1191.90799006 Ry
     estimated scf accuracy    <       0.00001817 Ry

     iteration # 14     ecut=    60.00 Ry     beta= 0.70
     Davidson diagonalization with overlap
     ethr =  1.59E-08,  avg # of iterations =  2.0

     negative rho (up, down):  8.017E-01 0.000E+00

     total cpu time spent up to now is     1477.1 secs

     total energy              =   -1191.90799034 Ry
     estimated scf accuracy    <       0.00000579 Ry

     iteration # 15     ecut=    60.00 Ry     beta= 0.70
     Davidson diagonalization with overlap
     ethr =  5.08E-09,  avg # of iterations =  2.6

     negative rho (up, down):  8.017E-01 0.000E+00

     total cpu time spent up to now is     1639.2 secs

     total energy              =   -1191.90799046 Ry
     estimated scf accuracy    <       0.00000213 Ry

     iteration # 16     ecut=    60.00 Ry     beta= 0.70
     Davidson diagonalization with overlap
     ethr =  1.86E-09,  avg # of iterations =  4.3

     negative rho (up, down):  8.017E-01 0.000E+00

     total cpu time spent up to now is     1802.4 secs

     End of self-consistent calculation

          k = 0.0000 0.0000 0.0000 ( 18635 PWs)   bands (ev):

   -75.3791 -75.3062 -75.2301 -74.8637 -74.7860 -74.7860 -37.5915 -37.5032
   -37.5032 -37.4169 -37.4168 -37.3817 -37.1987 -36.7876 -36.7876 -36.7538
   -36.7538 -36.6790 -36.6647 -36.5855 -36.5855 -36.5800 -36.1713 -36.1713
   -12.0231  -7.3136  -6.8837  -6.8837  -5.1500  -5.1499  -5.1268  -3.7671
    -2.3811  -1.2755  -0.0083  -0.0082   0.3430   0.3431   0.9890   0.9891
     1.0770   1.4603   1.4603   1.5572   2.4027   2.4027   3.0963   3.3613
     3.3613   3.3626   3.3640   3.5097   3.5097   4.3075   4.3075   4.3617
     4.6293   5.0494   5.0494   5.7760   5.7760   6.4864   7.0024   7.0368
     7.0368   7.2784   7.2785   7.6666

          k = 0.0000 0.1925 0.0000 ( 18645 PWs)   bands (ev):

   -75.3732 -75.3098 -75.2325 -74.8576 -74.7897 -74.7885 -37.6081 -37.5778
   -37.5664 -37.4028 -37.2917 -37.2705 -37.2106 -36.8710 -36.8205 -36.7988
   -36.7786 -36.6087 -36.5912 -36.5769 -36.5649 -36.5583 -36.2469 -36.1900
   -11.8717  -8.3686  -7.0906  -6.2960  -5.3233  -4.6916  -4.5728  -2.9848
    -2.0715  -1.0483  -0.6659  -0.5448   0.2468   0.3733   0.6711   0.8140
     0.9576   1.3644   1.5077   1.6174   1.9651   2.2697   2.8630   3.0500
     3.1668   3.3160   3.3611   3.4640   3.7936   3.8992   4.0047   4.1743
     4.4094   5.1539   5.5668   5.6056   5.9288   6.4895   6.7763   7.0424
     7.3287   7.5496   7.8272   7.9174

          k = 0.0000 0.3849 0.0000 ( 18717 PWs)   bands (ev):

   -75.3586 -75.3194 -75.2377 -74.8415 -74.8018 -74.7927 -37.7029 -37.5448
   -37.5283 -37.4353 -37.2519 -37.1325 -37.1024 -37.0608 -36.8742 -36.8501
   -36.7631 -36.5892 -36.5730 -36.5666 -36.4593 -36.4346 -36.4205 -36.2470
   -11.4415  -9.5119  -7.3737  -6.6660  -4.1327  -3.7694  -3.6546  -1.8579
    -1.5751  -1.4018  -1.2752  -0.7271  -0.3781  -0.1259   0.0263   0.2723
     0.6893   0.8550   1.1627   1.3470   1.6913   2.3157   2.4871   2.7789
     2.8969   3.1227   3.1649   3.4601   3.7053   3.9455   4.2734   4.6044
     4.6350   5.2013   5.5944   5.9106   6.1351   6.6066   6.9899   7.4042
     7.7122   7.8211   7.8856   8.2844

          k = 0.0000-0.5774 0.0000 ( 18712 PWs)   bands (ev):

   -75.3466 -75.3286 -75.2405 -74.8211 -74.8202 -74.7947 -37.7369 -37.4950
   -37.4907 -37.3957 -37.3197 -37.2231 -37.0052 -36.9954 -36.9579 -36.8797
   -36.6611 -36.6559 -36.5940 -36.5457 -36.5297 -36.3710 -36.3419 -36.3382
   -10.9991 -10.2024  -7.4830  -6.8435  -3.1062  -2.8897  -2.7999  -2.6089
    -1.9067  -1.7601  -1.1087  -0.9082  -0.5543  -0.5346  -0.2141   0.3628
     0.6664   0.8847   0.9945   1.1042   1.2908   2.1954   2.2617   2.5242
     2.6884   3.1811   3.2773   3.4340   3.9783   4.0593   4.1951   4.3967
     5.5474   5.6236   5.6984   6.0541   6.3974   7.2707   7.3665   7.4119
     7.5542   7.6276   7.7689   8.1590

          k = 0.1667 0.2887 0.0000 ( 18703 PWs)   bands (ev):

   -75.3629 -75.3163 -75.2364 -74.8465 -74.7948 -74.7946 -37.6316 -37.6179
   -37.5439 -37.4287 -37.2484 -37.1473 -37.1366 -37.0279 -36.8417 -36.8207
   -36.8092 -36.5853 -36.5768 -36.5670 -36.4764 -36.4761 -36.3785 -36.2218
   -11.5786  -9.1646  -7.7216  -5.5829  -5.3965  -4.0259  -3.6804  -2.1070
    -1.6013  -1.2727  -1.1108  -0.5863  -0.3080  -0.2939   0.3506   0.5157
     0.6787   0.9178   1.1407   1.4287   1.8463   2.3344   2.6029   2.9078
     3.0913   3.2610   3.4177   3.5732   3.6950   4.0562   4.1891   4.2447
     4.5121   4.9378   5.4928   5.9782   6.1569   6.5277   6.7881   7.0022
     7.5500   7.8306   8.0040   8.0259

          k = 0.1667 0.4811 0.0000 ( 18701 PWs)   bands (ev):

   -75.3480 -75.3269 -75.2408 -74.8283 -74.8090 -74.7988 -37.6742 -37.5293
   -37.5041 -37.4481 -37.3075 -37.2137 -37.0206 -37.0007 -36.9021 -36.8524
   -36.7612 -36.6295 -36.5850 -36.5599 -36.5211 -36.3741 -36.3703 -36.2826
   -11.0577 -10.0214  -8.1766  -5.7179  -4.1443  -3.2348  -2.6231  -2.3765
    -1.9841  -1.5068  -1.0984  -0.9268  -0.6216  -0.2531  -0.0956   0.0283
     0.4908   0.6729   1.0724   1.1324   1.3643   2.4106   2.7223   2.8508
     3.0183   3.1550   3.4666   3.5716   3.8680   4.0928   4.2840   4.4963
     5.1312   5.3910   5.7714   6.1683   6.5799   6.6389   7.0218   7.2614
     7.7761   7.8441   8.0087   8.0599

          k = 0.3333 0.5774 0.0000 ( 18777 PWs)   bands (ev):

   -75.3365 -75.3365 -75.2428 -74.8127 -74.8117 -74.8117 -37.5601 -37.5213
   -37.5213 -37.4515 -37.4515 -37.2267 -36.9658 -36.9328 -36.9328 -36.7763
   -36.7745 -36.7745 -36.5766 -36.5531 -36.5530 -36.3255 -36.3196 -36.3196
   -10.5321 -10.5320  -8.6061  -4.3494  -4.3494  -3.8968  -2.4412  -2.4411
    -2.0806  -1.5613  -1.0786  -1.0786  -0.7563  -0.2524  -0.2524   0.0230
     0.5615   0.5616   1.0968   1.1135   1.1136   2.8328   2.8329   2.9725
     3.2129   3.2130   3.7852   3.8119   4.0530   4.0530   4.3966   4.3966
     4.9447   6.2010   6.3432   6.3432   6.4127   6.4127   6.6611   7.5180
     7.5180   7.5841   7.9346   7.9346

     the Fermi energy is     5.1122 ev

!    total energy              =   -1191.90799071 Ry
     estimated scf accuracy    <       0.00000003 Ry
     smearing contrib. (-TS)   =      -0.00201259 Ry
     internal energy E=F+TS    =   -1191.90597812 Ry

     The total energy is F=E-TS. E is the sum of the following terms:
     one-electron contribution =   -6106.60907308 Ry
     hartree contribution      =    3060.00653377 Ry
     xc contribution           =    -337.28852551 Ry
     ewald contribution        =    2191.98508669 Ry

     convergence has been achieved in  16 iterations

     Writing all to output data dir ../../outdir/borophene.save/

     init_run     :     25.36s CPU     19.74s WALL (       1 calls)
     electrons    :   1340.74s CPU   1782.69s WALL (       1 calls)

     Called by init_run:
     wfcinit      :     21.67s CPU     13.95s WALL (       1 calls)
     potinit      :      0.37s CPU      0.25s WALL (       1 calls)
     hinit0       :      1.70s CPU      1.55s WALL (       1 calls)

     Called by electrons:
     c_bands      :   1066.01s CPU    788.98s WALL (      16 calls)
     sum_band     :    219.91s CPU    743.95s WALL (      16 calls)
     v_of_rho     :      5.66s CPU     12.00s WALL (      17 calls)
     newd         :     45.45s CPU    194.81s WALL (      17 calls)
     mix_rho      :      4.35s CPU     35.02s WALL (      16 calls)

     Called by c_bands:
     init_us_2    :     10.81s CPU     49.35s WALL (     231 calls)
     init_us_2:cp :     10.80s CPU     49.34s WALL (     231 calls)
     cegterg      :   1015.53s CPU    698.26s WALL (     112 calls)

     Called by *egterg:
     cdiaghg      :      5.34s CPU      5.18s WALL (     665 calls)
     h_psi        :    769.08s CPU    525.40s WALL (     672 calls)
     s_psi        :     79.35s CPU     29.94s WALL (     672 calls)
     g_psi        :      2.24s CPU      2.07s WALL (     553 calls)

     Called by h_psi:
     h_psi:calbec :     84.86s CPU     36.98s WALL (     672 calls)
     vloc_psi     :    597.44s CPU    450.29s WALL (     672 calls)
     add_vuspsi   :     84.28s CPU     34.98s WALL (     672 calls)

     General routines
     calbec       :    112.26s CPU     51.42s WALL (     784 calls)
     fft          :      2.61s CPU      2.40s WALL (     187 calls)
     ffts         :      0.70s CPU      0.62s WALL (      16 calls)
     fftw         :    545.57s CPU    423.52s WALL (   55454 calls)

     Parallel routines

     PWSCF        :  22m46.68s CPU  30m 9.14s WALL


   This run was terminated on:  19:14:46  30Jul2025            

=------------------------------------------------------------------------------=
   JOB DONE.
=------------------------------------------------------------------------------=
