
     Program PWSCF v.7.2 starts on 30Jul2025 at 19:30:31 

     This program is part of the open-source Quantum ESPRESSO suite
     for quantum simulation of materials; please cite
         "P. Giannozzi et al., J. Phys.:Condens. Matter 21 395502 (2009);
         "P. Giannozzi et al., J. Phys.:Condens. Matter 29 465901 (2017);
         "P. Giannozzi et al., J. Chem. Phys. 152 154105 (2020);
          URL http://www.quantum-espresso.org", 
     in publications or presentations arising from this work. More details at
     http://www.quantum-espresso.org/quote

     Parallel version (MPI & OpenMP), running on       2 processor cores
     Number of MPI processes:                 1
     Threads/MPI process:                     2

     MPI processes distributed on     1 nodes
     700 MiB available memory on the printing compute node when the environment starts

     Reading input from alpha.bands.in

     Current dimensions of program PWSCF are:
     Max number of different atomic species (ntypx) = 10
     Max number of k-points (npk) =  40000
     Max angular momentum in pseudopotentials (lmaxx) =  4

     Atomic positions and unit cell read from directory:
     ../../outdir/borophene.save/
     Atomic positions from file used, from input discarded

     file B.pbesol-n-rrkjus_psl.1.0.0.UPF: wavefunction(s)  2S renormalized

     Subspace diagonalization in iterative solution of the eigenvalue problem:
     a serial algorithm will be used


     G-vector sticks info
     --------------------
     sticks:   dense  smooth     PW     G-vecs:    dense   smooth      PW
     Sum        1357    1357    379               149567   149567   22295

     Using Slab Decomposition



     bravais-lattice index     =            4
     lattice parameter (alat)  =       9.0360  a.u.
     unit-cell volume          =    2382.6030 (a.u.)^3
     number of atoms/cell      =           14
     number of atomic types    =            2
     number of electrons       =       114.00
     number of Kohn-Sham states=           68
     kinetic-energy cutoff     =      60.0000  Ry
     charge density cutoff     =     240.0000  Ry
     Exchange-correlation= SLA  PW   PSX  PSC
                           (   1   4  10   8   0   0   0)

     celldm(1)=   9.036000  celldm(2)=   0.000000  celldm(3)=   3.729000
     celldm(4)=   0.000000  celldm(5)=   0.000000  celldm(6)=   0.000000

     crystal axes: (cart. coord. in units of alat)
               a(1) = (   1.000000   0.000000   0.000000 )  
               a(2) = (  -0.500000   0.866025   0.000000 )  
               a(3) = (   0.000000   0.000000   3.729000 )  

     reciprocal axes: (cart. coord. in units 2 pi/alat)
               b(1) = (  1.000000  0.577350 -0.000000 )  
               b(2) = (  0.000000  1.154701  0.000000 )  
               b(3) = (  0.000000 -0.000000  0.268168 )  


     PseudoPot. # 1 for B  read from file:
     ../../pseudo/B.pbesol-n-rrkjus_psl.1.0.0.UPF
     MD5 check sum: a3839a09b1a4e02f2a06a66adc9253fc
     Pseudo is Ultrasoft + core correction, Zval =  3.0
     Generated using &quot;atomic&quot; code by A. Dal Corso  v.6.3MaX
     Using radial grid of 1059 points,  4 beta functions with: 
                l(1) =   0
                l(2) =   0
                l(3) =   1
                l(4) =   1
     Q(r) pseudized with 0 coefficients 


     PseudoPot. # 2 for Re read from file:
     ../../pseudo/re_pbesol_v1.2.uspp.F.UPF
     MD5 check sum: aaf9138663fa2d46e1797bae542d0e3d
     Pseudo is Ultrasoft + core correction, Zval = 15.0
     Generated by new atomic code, or converted to UPF format
     Using radial grid of  981 points,  8 beta functions with: 
                l(1) =   0
                l(2) =   0
                l(3) =   1
                l(4) =   1
                l(5) =   2
                l(6) =   2
                l(7) =   3
                l(8) =   3
     Q(r) pseudized with  8 coefficients,  rinner =    1.150   1.150   1.150
                                                       1.150   1.150   1.150
                                                       1.150

     atomic species   valence    mass     pseudopotential
        B              3.00    10.81100     B ( 1.00)
        Re            15.00   186.20700     Re( 1.00)

      6 Sym. Ops. (no inversion) found



   Cartesian axes

     site n.     atom                  positions (alat units)
         1           Re  tau(   1) = (   0.3333330   0.0000000   0.0000000  )
         2           Re  tau(   2) = (  -0.1666665   0.2886748   0.0000000  )
         3           Re  tau(   3) = (   0.3333335   0.5773506   0.0000000  )
         4           Re  tau(   4) = (   0.0000000   0.0000000   0.4598000  )
         5           Re  tau(   5) = (   0.5000005   0.2886748   0.4321867  )
         6           Re  tau(   6) = (  -0.0000005   0.5773506   0.4321867  )
         7           B   tau(   7) = (   0.3335585   0.0000000   0.8206364  )
         8           B   tau(   8) = (   0.6788599   0.0000000   0.8910164  )
         9           B   tau(   9) = (  -0.1667792   0.2888701   0.8206364  )
        10           B   tau(  10) = (   0.1605701   0.2781155   0.8910164  )
        11           B   tau(  11) = (   0.5000005   0.2886748   0.9506643  )
        12           B   tau(  12) = (  -0.3394299   0.5879099   0.8910164  )
        13           B   tau(  13) = (  -0.0000005   0.5773506   0.9506643  )
        14           B   tau(  14) = (   0.3332208   0.5771553   0.8206364  )

     number of k points=    50  Marzari-Vanderbilt smearing, width (Ry)=  0.0200
                       cart. coord. in units 2pi/alat
        k(    1) = (   0.0000000   0.0000000   0.1340842), wk =   0.0400000
        k(    2) = (   0.0000000   0.0320750   0.1340842), wk =   0.0400000
        k(    3) = (   0.0000000   0.0641500   0.1340842), wk =   0.0400000
        k(    4) = (   0.0000000   0.0962250   0.1340842), wk =   0.0400000
        k(    5) = (   0.0000000   0.1283001   0.1340842), wk =   0.0400000
        k(    6) = (   0.0000000   0.1603751   0.1340842), wk =   0.0400000
        k(    7) = (   0.0000000   0.1924501   0.1340842), wk =   0.0400000
        k(    8) = (   0.0000000   0.2245251   0.1340842), wk =   0.0400000
        k(    9) = (   0.0000000   0.2566001   0.1340842), wk =   0.0400000
        k(   10) = (   0.0000000   0.2886751   0.1340842), wk =   0.0400000
        k(   11) = (   0.0000000   0.3207501   0.1340842), wk =   0.0400000
        k(   12) = (   0.0000000   0.3528252   0.1340842), wk =   0.0400000
        k(   13) = (   0.0000000   0.3849002   0.1340842), wk =   0.0400000
        k(   14) = (   0.0000000   0.4169752   0.1340842), wk =   0.0400000
        k(   15) = (   0.0000000   0.4490502   0.1340842), wk =   0.0400000
        k(   16) = (   0.0000000   0.4811252   0.1340842), wk =   0.0400000
        k(   17) = (   0.0000000   0.5132002   0.1340842), wk =   0.0400000
        k(   18) = (   0.0000000   0.5452753   0.1340842), wk =   0.0400000
        k(   19) = (   0.0000000   0.5773503   0.1340842), wk =   0.0400000
        k(   20) = (   0.0333330   0.5773497   0.1340842), wk =   0.0400000
        k(   21) = (   0.0666660   0.5773491   0.1340842), wk =   0.0400000
        k(   22) = (   0.0999990   0.5773485   0.1340842), wk =   0.0400000
        k(   23) = (   0.1333320   0.5773480   0.1340842), wk =   0.0400000
        k(   24) = (   0.1666650   0.5773474   0.1340842), wk =   0.0400000
        k(   25) = (   0.1999980   0.5773468   0.1340842), wk =   0.0400000
        k(   26) = (   0.2333310   0.5773462   0.1340842), wk =   0.0400000
        k(   27) = (   0.2666640   0.5773457   0.1340842), wk =   0.0400000
        k(   28) = (   0.2999970   0.5773451   0.1340842), wk =   0.0400000
        k(   29) = (   0.3333300   0.5773445   0.1340842), wk =   0.0400000
        k(   30) = (   0.3174571   0.5498519   0.1340842), wk =   0.0400000
        k(   31) = (   0.3015843   0.5223593   0.1340842), wk =   0.0400000
        k(   32) = (   0.2857114   0.4948667   0.1340842), wk =   0.0400000
        k(   33) = (   0.2698386   0.4673741   0.1340842), wk =   0.0400000
        k(   34) = (   0.2539657   0.4398815   0.1340842), wk =   0.0400000
        k(   35) = (   0.2380929   0.4123889   0.1340842), wk =   0.0400000
        k(   36) = (   0.2222200   0.3848963   0.1340842), wk =   0.0400000
        k(   37) = (   0.2063471   0.3574037   0.1340842), wk =   0.0400000
        k(   38) = (   0.1904743   0.3299111   0.1340842), wk =   0.0400000
        k(   39) = (   0.1746014   0.3024185   0.1340842), wk =   0.0400000
        k(   40) = (   0.1587286   0.2749260   0.1340842), wk =   0.0400000
        k(   41) = (   0.1428557   0.2474334   0.1340842), wk =   0.0400000
        k(   42) = (   0.1269829   0.2199408   0.1340842), wk =   0.0400000
        k(   43) = (   0.1111100   0.1924482   0.1340842), wk =   0.0400000
        k(   44) = (   0.0952371   0.1649556   0.1340842), wk =   0.0400000
        k(   45) = (   0.0793643   0.1374630   0.1340842), wk =   0.0400000
        k(   46) = (   0.0634914   0.1099704   0.1340842), wk =   0.0400000
        k(   47) = (   0.0476186   0.0824778   0.1340842), wk =   0.0400000
        k(   48) = (   0.0317457   0.0549852   0.1340842), wk =   0.0400000
        k(   49) = (   0.0158729   0.0274926   0.1340842), wk =   0.0400000
        k(   50) = (   0.0000000   0.0000000   0.1340842), wk =   0.0400000

     Dense  grid:   149567 G-vectors     FFT dimensions: (  45,  45, 180)

     Estimated max dynamical RAM per process >       1.40 GB

     Check: negative core charge=   -0.000001

     The potential is recalculated from file :
     ../../outdir/borophene.save/charge-density


     negative rho (up, down):  8.017E-01 0.000E+00
     Starting wfcs are  110 randomized atomic wfcs

     Band Structure Calculation
     Davidson diagonalization with overlap

     ethr =  8.77E-10,  avg # of iterations = 42.9

     total cpu time spent up to now is     2031.9 secs

     End of band structure calculation

          k = 0.0000 0.0000 0.1341 ( 18720 PWs)   bands (ev):

   -75.3784 -75.3053 -75.2308 -74.8646 -74.7870 -74.7870 -37.5913 -37.5028
   -37.5027 -37.4170 -37.4169 -37.3813 -37.1995 -36.7881 -36.7881 -36.7541
   -36.7541 -36.6798 -36.6651 -36.5863 -36.5862 -36.5807 -36.1721 -36.1721
   -12.0235  -7.3139  -6.8841  -6.8840  -5.1504  -5.1504  -5.1271  -3.7675
    -2.3814  -1.2755  -0.0083  -0.0083   0.3427   0.3428   0.9890   0.9891
     1.0771   1.4601   1.4602   1.5567   2.4026   2.4026   3.0959   3.3608
     3.3608   3.3620   3.3635   3.5093   3.5093   4.3071   4.3071   4.3617
     4.6291   5.0491   5.0491   5.7759   5.7759   6.4872   7.0021   7.0363
     7.0363   7.2779   7.2780   7.6664

          k = 0.0000 0.0321 0.1341 ( 18720 PWs)   bands (ev):

   -75.3782 -75.3054 -75.2309 -74.8645 -74.7871 -74.7871 -37.5908 -37.5097
   -37.5090 -37.4095 -37.4087 -37.3816 -37.2001 -36.7900 -36.7891 -36.7575
   -36.7553 -36.6760 -36.6620 -36.5861 -36.5859 -36.5799 -36.1744 -36.1727
   -12.0192  -7.3975  -6.8915  -6.8061  -5.2339  -5.1358  -5.0463  -3.7390
    -2.3723  -1.2689  -0.0486  -0.0458   0.3697   0.3799   0.9605   0.9683
     1.0757   1.4569   1.4735   1.5600   2.3847   2.4045   3.0885   3.3044
     3.3175   3.4026   3.4150   3.5092   3.5184   4.2642   4.2745   4.3460
     4.6194   5.0711   5.0845   5.7671   5.7868   6.4953   6.9525   7.0338
     7.0754   7.2823   7.2989   7.6743

          k = 0.0000 0.0642 0.1341 ( 18710 PWs)   bands (ev):

   -75.3777 -75.3057 -75.2311 -74.8639 -74.7874 -74.7873 -37.5893 -37.5260
   -37.5226 -37.3932 -37.3899 -37.3797 -37.2017 -36.7959 -36.7921 -36.7664
   -36.7586 -36.6659 -36.6534 -36.5858 -36.5850 -36.5777 -36.1810 -36.1742
   -12.0065  -7.5674  -6.9133  -6.6552  -5.3247  -5.0928  -4.9584  -3.6569
    -2.3452  -1.2491  -0.1442  -0.1288   0.4188   0.4640   0.8788   0.9210
     1.0684   1.4494   1.5058   1.5643   2.3328   2.4083   3.0636   3.2458
     3.2883   3.4201   3.4330   3.5283   3.5557   4.1616   4.1925   4.3036
     4.5954   5.1184   5.1694   5.7424   5.8155   6.5153   6.8794   7.0275
     7.1289   7.3012   7.3537   7.6970

          k = 0.0000 0.0962 0.1341 ( 18694 PWs)   bands (ev):

   -75.3769 -75.3062 -75.2314 -74.8631 -74.7879 -74.7877 -37.5870 -37.5459
   -37.5375 -37.3895 -37.3679 -37.3590 -37.2042 -36.8061 -36.7968 -36.7778
   -36.7630 -36.6520 -36.6402 -36.5852 -36.5832 -36.5745 -36.1919 -36.1768
   -11.9853  -7.7611  -6.9471  -6.5014  -5.3998  -5.0238  -4.8709  -3.5303
    -2.3006  -1.2164  -0.2639  -0.2276   0.4496   0.5632   0.7598   0.8619
     1.0566   1.4360   1.5421   1.5664   2.2521   2.4075   3.0177   3.1935
     3.2767   3.3927   3.4249   3.5455   3.6384   4.0479   4.0942   4.2427
     4.5618   5.1618   5.2727   5.7063   5.8521   6.5364   6.8088   7.0191
     7.1874   7.3437   7.4378   7.7342

          k = 0.0000 0.1283 0.1341 ( 18664 PWs)   bands (ev):

   -75.3757 -75.3069 -75.2319 -74.8619 -74.7886 -74.7882 -37.5838 -37.5668
   -37.5507 -37.3927 -37.3432 -37.3302 -37.2072 -36.8221 -36.8033 -36.7879
   -36.7680 -36.6369 -36.6235 -36.5842 -36.5802 -36.5705 -36.2068 -36.1804
   -11.9558  -7.9623  -6.9899  -6.3761  -5.4387  -4.9317  -4.7796  -3.3697
    -2.2393  -1.1711  -0.3941  -0.3316   0.4410   0.6166   0.6635   0.7998
     1.0410   1.4136   1.5518   1.5876   2.1521   2.3901   2.9570   3.1522
     3.2814   3.3252   3.4113   3.5433   3.7330   3.9600   4.0152   4.1752
     4.5192   5.1849   5.3788   5.6652   5.8861   6.5427   6.7613   7.0139
     7.2432   7.4063   7.5570   7.7857

          k = 0.0000 0.1604 0.1341 ( 18658 PWs)   bands (ev):

   -75.3743 -75.3078 -75.2325 -74.8604 -74.7895 -74.7888 -37.5879 -37.5800
   -37.5609 -37.3972 -37.3176 -37.2998 -37.2101 -36.8441 -36.8118 -36.7946
   -36.7734 -36.6223 -36.6052 -36.5824 -36.5752 -36.5657 -36.2256 -36.1851
   -11.9180  -8.1657  -7.0388  -6.3047  -5.4167  -4.8201  -4.6811  -3.1852
    -2.1625  -1.1143  -0.5293  -0.4378   0.3798   0.4770   0.7206   0.7673
     1.0092   1.3879   1.5409   1.6115   2.0489   2.3424   2.9015   3.1164
     3.2316   3.2987   3.3885   3.5155   3.7948   3.9194   3.9861   4.1302
     4.4678   5.1820   5.4811   5.6266   5.9115   6.5223   6.7535   7.0195
     7.2906   7.4772   7.7038   7.8456

          k = 0.0000 0.1925 0.1341 ( 18668 PWs)   bands (ev):

   -75.3725 -75.3089 -75.2332 -74.8586 -74.7907 -74.7894 -37.6079 -37.5775
   -37.5661 -37.4024 -37.2917 -37.2704 -37.2112 -36.8710 -36.8211 -36.7993
   -36.7787 -36.6095 -36.5919 -36.5777 -36.5656 -36.5588 -36.2478 -36.1909
   -11.8720  -8.3689  -7.0910  -6.2964  -5.3237  -4.6920  -4.5730  -2.9852
    -2.0718  -1.0483  -0.6661  -0.5450   0.2468   0.3731   0.6711   0.8137
     0.9575   1.3640   1.5075   1.6171   1.9650   2.2696   2.8627   3.0498
     3.1664   3.3155   3.3606   3.4636   3.7933   3.8990   4.0043   4.1740
     4.4092   5.1536   5.5665   5.6053   5.9286   6.4892   6.7760   7.0422
     7.3286   7.5492   7.8271   7.9172

          k = 0.0000 0.2245 0.1341 ( 18648 PWs)   bands (ev):

   -75.3705 -75.3101 -75.2340 -74.8565 -74.7921 -74.7902 -37.6270 -37.5777
   -37.5642 -37.4081 -37.2662 -37.2470 -37.2057 -36.9016 -36.8305 -36.8037
   -36.7830 -36.5995 -36.5876 -36.5717 -36.5513 -36.5443 -36.2730 -36.1977
   -11.8182  -8.5704  -7.1441  -6.3346  -5.1752  -4.5507  -4.4537  -2.7771
    -1.9693  -0.9825  -0.7979  -0.6508   0.0796   0.2864   0.6161   0.7728
     0.9413   1.3314   1.4361   1.5994   1.9077   2.2144   2.8081   2.9722
     3.1547   3.2738   3.3775   3.3936   3.7964   3.8333   4.0672   4.2890
     4.3534   5.1049   5.5658   5.6686   5.9424   6.4654   6.8102   7.0855
     7.3598   7.6181   7.8684   8.0246

          k = 0.0000 0.2566 0.1341 ( 18674 PWs)   bands (ev):

   -75.3683 -75.3115 -75.2348 -74.8541 -74.7938 -74.7909 -37.6450 -37.5772
   -37.5587 -37.4139 -37.2464 -37.2321 -37.1863 -36.9350 -36.8397 -36.8097
   -36.7850 -36.5925 -36.5861 -36.5681 -36.5362 -36.5221 -36.3007 -36.2056
   -11.7566  -8.7688  -7.1964  -6.3965  -4.9928  -4.3996  -4.3217  -2.5677
    -1.8576  -0.9888  -0.8766  -0.7329  -0.0928   0.2015   0.5621   0.6523
     0.9425   1.2672   1.3595   1.5404   1.8701   2.2169   2.7031   2.9531
     3.1560   3.1991   3.3075   3.4201   3.7496   3.8368   4.1487   4.2735
     4.4556   5.0449   5.5540   5.7370   5.9586   6.4631   6.8459   7.1494
     7.3908   7.6807   7.8749   8.1298

          k = 0.0000 0.2887 0.1341 ( 18652 PWs)   bands (ev):

   -75.3658 -75.3131 -75.2357 -74.8515 -74.7957 -74.7916 -37.6617 -37.5738
   -37.5519 -37.4197 -37.2430 -37.2093 -37.1594 -36.9704 -36.8485 -36.8178
   -36.7838 -36.5890 -36.5837 -36.5664 -36.5187 -36.4985 -36.3304 -36.2145
   -11.6877  -8.9632  -7.2465  -6.4672  -4.7910  -4.2430  -4.1754  -2.3633
    -1.7404  -1.1093  -0.9458  -0.7072  -0.2614   0.1189   0.5009   0.5107
     0.9001   1.1844   1.2907   1.4562   1.8509   2.2617   2.5922   2.9589
     3.1016   3.1731   3.2127   3.4660   3.6759   3.9023   4.1804   4.2756
     4.6020   4.9896   5.5481   5.7934   5.9801   6.4852   6.8791   7.2276
     7.4321   7.7354   7.8677   8.2173

          k = 0.0000 0.3208 0.1341 ( 18678 PWs)   bands (ev):

   -75.3632 -75.3148 -75.2366 -74.8486 -74.7978 -74.7924 -37.6769 -37.5670
   -37.5444 -37.4253 -37.2451 -37.1838 -37.1320 -37.0069 -36.8571 -36.8278
   -36.7797 -36.5884 -36.5797 -36.5660 -36.4997 -36.4754 -36.3613 -36.2246
   -11.6118  -9.1527  -7.2933  -6.5383  -4.5779  -4.0852  -4.0134  -2.1709
    -1.6243  -1.2433  -1.0646  -0.6186  -0.4178   0.0388   0.3485   0.4397
     0.8188   1.0902   1.2229   1.3993   1.8255   2.3109   2.5123   2.9427
     3.0408   3.1132   3.1769   3.4994   3.6303   3.9778   4.1391   4.3759
     4.6975   4.9833   5.5488   5.8433   6.0089   6.5253   6.9105   7.3039
     7.4997   7.7830   7.8533   8.2753

          k = 0.0000 0.3528 0.1341 ( 18690 PWs)   bands (ev):

   -75.3605 -75.3166 -75.2375 -74.8456 -74.8002 -74.7931 -37.6906 -37.5571
   -37.5364 -37.4305 -37.2485 -37.1580 -37.1078 -37.0421 -36.8656 -36.8389
   -36.7730 -36.5889 -36.5757 -36.5667 -36.4799 -36.4536 -36.3925 -36.2357
   -11.5295  -9.3361  -7.3361  -6.6056  -4.3577  -3.9275  -3.8384  -1.9986
    -1.5323  -1.3638  -1.1911  -0.6034  -0.4747  -0.0412   0.1867   0.3584
     0.7415   0.9669   1.1860   1.3684   1.7727   2.3291   2.4847   2.8673
     2.9859   3.0839   3.1692   3.4889   3.6490   3.9897   4.1734   4.4914
     4.6863   5.0745   5.5610   5.8861   6.0544   6.5704   6.9451   7.3624
     7.6016   7.8257   7.8383   8.2971

          k = 0.0000 0.3849 0.1341 ( 18690 PWs)   bands (ev):

   -75.3578 -75.3186 -75.2384 -74.8424 -74.8027 -74.7937 -37.7026 -37.5445
   -37.5280 -37.4349 -37.2525 -37.1323 -37.1019 -37.0612 -36.8746 -36.8503
   -36.7637 -36.5899 -36.5737 -36.5672 -36.4601 -36.4353 -36.4212 -36.2478
   -11.4418  -9.5123  -7.3740  -6.6665  -4.1331  -3.7697  -3.6550  -1.8583
    -1.5754  -1.4020  -1.2754  -0.7272  -0.3781  -0.1260   0.0260   0.2722
     0.6891   0.8547   1.1625   1.3466   1.6911   2.3155   2.4869   2.7785
     2.8967   3.1224   3.1646   3.4599   3.7050   3.9452   4.2732   4.6041
     4.6346   5.2010   5.5942   5.9103   6.1348   6.6064   6.9896   7.4039
     7.7115   7.8209   7.8852   8.2840

          k = 0.0000 0.4170 0.1341 ( 18688 PWs)   bands (ev):

   -75.3550 -75.3205 -75.2392 -74.8391 -74.8055 -74.7943 -37.7129 -37.5309
   -37.5185 -37.4379 -37.2575 -37.1300 -37.1066 -37.0483 -36.8854 -36.8605
   -36.7518 -36.5911 -36.5771 -36.5646 -36.4563 -36.4372 -36.4143 -36.2610
   -11.3501  -9.6793  -7.4068  -6.7195  -3.9061  -3.6136  -3.4678  -1.7890
    -1.6959  -1.4776  -1.2294  -0.8420  -0.2874  -0.2202  -0.1219   0.2070
     0.6540   0.7841   1.1398   1.3252   1.5928   2.2888   2.4772   2.6981
     2.8198   3.1209   3.2200   3.4374   3.7560   3.9165   4.3629   4.5352
     4.7701   5.3127   5.6575   5.9116   6.2582   6.6237   7.0472   7.4327
     7.7554   7.8399   7.9760   8.2441

          k = 0.0000 0.4491 0.1341 ( 18708 PWs)   bands (ev):

   -75.3523 -75.3225 -75.2399 -74.8357 -74.8084 -74.7948 -37.7214 -37.5193
   -37.5070 -37.4381 -37.2643 -37.1627 -37.0817 -37.0309 -36.8990 -36.8684
   -36.7376 -36.5927 -36.5849 -36.5606 -36.4809 -36.4181 -36.3995 -36.2751
   -11.2565  -9.8349  -7.4340  -6.7637  -3.6783  -3.4634  -3.2820  -1.9167
    -1.7211  -1.5480  -1.1619  -0.9244  -0.3247  -0.2829  -0.1960   0.1919
     0.6276   0.7643   1.1136   1.2979   1.4918   2.2546   2.4421   2.6345
     2.7633   3.1125   3.2870   3.4268   3.7704   3.9465   4.4008   4.4638
     4.9427   5.4024   5.7395   5.8999   6.4204   6.6189   7.1147   7.4496
     7.7359   7.8761   8.0531   8.2256

          k = 0.0000 0.4811 0.1341 ( 18704 PWs)   bands (ev):

   -75.3499 -75.3244 -75.2405 -74.8322 -74.8116 -74.7952 -37.7281 -37.5105
   -37.4959 -37.4329 -37.2750 -37.1910 -37.0574 -37.0160 -36.9151 -36.8738
   -36.7209 -36.5993 -36.5922 -36.5564 -36.5017 -36.3984 -36.3873 -36.2903
   -11.1651  -9.9747  -7.4555  -6.7986  -3.4516  -3.3261  -3.1048  -2.1022
    -1.7746  -1.5979  -1.1198  -0.9563  -0.4213  -0.3808  -0.1902   0.2326
     0.6173   0.7810   1.0813   1.2584   1.4019   2.2208   2.3885   2.5875
     2.7261   3.1182   3.3192   3.4330   3.7806   4.0172   4.3329   4.4547
     5.1306   5.4839   5.7832   5.9141   6.5636   6.6416   7.1864   7.4540
     7.7014   7.8797   8.0345   8.2835

          k = 0.0000 0.5132 0.1341 ( 18716 PWs)   bands (ev):

   -75.3477 -75.3261 -75.2409 -74.8287 -74.8148 -74.7954 -37.7329 -37.5034
   -37.4898 -37.4204 -37.2912 -37.2106 -37.0343 -37.0049 -36.9327 -36.8774
   -36.7021 -36.6162 -36.5937 -36.5522 -36.5169 -36.3805 -36.3769 -36.3063
   -11.0830 -10.0914  -7.4709  -6.8237  -3.2298  -3.2112  -2.9485  -2.2992
    -1.8397  -1.6645  -1.1069  -0.9435  -0.4946  -0.4634  -0.1990   0.2958
     0.6281   0.8186   1.0430   1.2016   1.3369   2.1982   2.3309   2.5534
     2.7037   3.1383   3.3126   3.4401   3.8287   4.0938   4.2372   4.4403
     5.3125   5.5699   5.7488   5.9768   6.5126   6.8596   7.2574   7.4446
     7.6633   7.8267   7.9885   8.1762

          k = 0.0000 0.5453 0.1341 ( 18712 PWs)   bands (ev):

   -75.3463 -75.3273 -75.2412 -74.8251 -74.8181 -74.7956 -37.7357 -37.4977
   -37.4891 -37.4041 -37.3101 -37.2207 -37.0144 -36.9978 -36.9495 -36.8795
   -36.6814 -36.6369 -36.5945 -36.5483 -36.5265 -36.3737 -36.3593 -36.3231
   -11.0225 -10.1728  -7.4802  -6.8389  -3.1345  -3.0192  -2.8358  -2.4927
    -1.8886  -1.7316  -1.1073  -0.9194  -0.5389  -0.5169  -0.2099   0.3451
     0.6521   0.8625   1.0076   1.1375   1.3014   2.1923   2.2828   2.5316
     2.6919   3.1655   3.2908   3.4367   3.9099   4.1251   4.1720   4.4127
     5.4624   5.6542   5.6842   6.0319   6.4368   7.1049   7.3246   7.4206
     7.6332   7.7319   7.8088   8.1464

          k = 0.0000 0.5774 0.1341 ( 18692 PWs)   bands (ev):

   -75.3457 -75.3278 -75.2413 -74.8221 -74.8212 -74.7957 -37.7367 -37.4945
   -37.4904 -37.3953 -37.3198 -37.2236 -37.0046 -36.9953 -36.9584 -36.8802
   -36.6619 -36.6566 -36.5947 -36.5464 -36.5302 -36.3718 -36.3428 -36.3391
   -10.9995 -10.2028  -7.4833  -6.8440  -3.1065  -2.8900  -2.8002  -2.6092
    -1.9069  -1.7605  -1.1089  -0.9084  -0.5544  -0.5349  -0.2142   0.3627
     0.6660   0.8846   0.9942   1.1040   1.2905   2.1951   2.2613   2.5240
     2.6882   3.1810   3.2770   3.4338   3.9780   4.0590   4.1950   4.3962
     5.5473   5.6234   5.6982   6.0541   6.3972   7.2702   7.3662   7.4113
     7.5538   7.6275   7.7687   8.1582

          k = 0.0333 0.5773 0.1341 ( 18704 PWs)   bands (ev):

   -75.3456 -75.3279 -75.2414 -74.8220 -74.8211 -74.7959 -37.7344 -37.4945
   -37.4903 -37.3968 -37.3226 -37.2239 -37.0037 -36.9940 -36.9573 -36.8795
   -36.6638 -36.6586 -36.5944 -36.5467 -36.5306 -36.3713 -36.3418 -36.3381
   -10.9948 -10.2037  -7.5610  -6.7531  -3.1506  -2.8658  -2.8158  -2.5928
    -1.9483  -1.7286  -1.1050  -0.9103  -0.5607  -0.5225  -0.2080   0.3394
     0.6631   0.8383   1.0244   1.1159   1.2883   2.2084   2.2675   2.5511
     2.7077   3.1856   3.2482   3.4639   3.9790   4.0727   4.1912   4.3920
     5.5596   5.6352   5.6847   6.0530   6.3877   7.2678   7.3581   7.4141
     7.5455   7.6369   7.7719   8.1558

          k = 0.0667 0.5773 0.1341 ( 18678 PWs)   bands (ev):

   -75.3453 -75.3280 -75.2415 -74.8217 -74.8208 -74.7964 -37.7275 -37.4943
   -37.4903 -37.4009 -37.3307 -37.2247 -37.0014 -36.9899 -36.9542 -36.8773
   -36.6694 -36.6643 -36.5934 -36.5478 -36.5318 -36.3697 -36.3392 -36.3355
   -10.9807 -10.2069  -7.7241  -6.5500  -3.2478  -2.8635  -2.8244  -2.5469
    -2.0238  -1.6772  -1.0960  -0.9162  -0.5794  -0.4878  -0.1886   0.2786
     0.6535   0.7576   1.0592   1.1439   1.2809   2.2491   2.2946   2.6211
     2.7626   3.1965   3.2001   3.5194   3.9799   4.1113   4.1836   4.3822
     5.5956   5.6221   5.6905   6.0497   6.3620   7.2597   7.3374   7.4180
     7.5248   7.6609   7.7817   8.1482

          k = 0.1000 0.5773 0.1341 ( 18670 PWs)   bands (ev):

   -75.3447 -75.3284 -75.2417 -74.8212 -74.8203 -74.7974 -37.7162 -37.4941
   -37.4904 -37.4076 -37.3432 -37.2258 -36.9981 -36.9833 -36.9495 -36.8734
   -36.6783 -36.6734 -36.5918 -36.5493 -36.5336 -36.3670 -36.3354 -36.3317
   -10.9573 -10.2133  -7.9041  -6.3023  -3.3669  -2.9442  -2.7868  -2.4811
    -2.0975  -1.6321  -1.0872  -0.9267  -0.6075  -0.4409  -0.1549   0.1973
     0.6380   0.6766   1.0730   1.1729   1.2668   2.3178   2.3519   2.7147
     2.8419   3.1516   3.2268   3.5718   3.9750   4.1668   4.1823   4.3749
     5.5403   5.6526   5.7536   6.0451   6.3273   7.2436   7.3059   7.4176
     7.4956   7.6953   7.7978   8.1341

          k = 0.1333 0.5773 0.1341 ( 18696 PWs)   bands (ev):

   -75.3440 -75.3288 -75.2420 -74.8205 -74.8197 -74.7987 -37.7004 -37.4940
   -37.4912 -37.4164 -37.3591 -37.2267 -36.9940 -36.9751 -36.9440 -36.8676
   -36.6900 -36.6853 -36.5896 -36.5512 -36.5359 -36.3633 -36.3310 -36.3272
   -10.9245 -10.2249  -8.0772  -6.0326  -3.4974  -3.0558  -2.7516  -2.4063
    -2.1590  -1.5964  -1.0826  -0.9422  -0.6406  -0.3945  -0.1079   0.1091
     0.6069   0.6198   1.0697   1.1914   1.2458   2.4118   2.4344   2.8135
     2.9272   3.1274   3.2730   3.6112   3.9603   4.1968   4.2244   4.3827
     5.4228   5.7276   5.8375   6.0407   6.2924   7.2138   7.2602   7.4106
     7.4607   7.7382   7.8193   8.1105

          k = 0.1667 0.5773 0.1341 ( 18704 PWs)   bands (ev):

   -75.3430 -75.3294 -75.2424 -74.8197 -74.8189 -74.8003 -37.6806 -37.4942
   -37.4933 -37.4263 -37.3772 -37.2273 -36.9891 -36.9663 -36.9383 -36.8595
   -36.7038 -36.6993 -36.5870 -36.5531 -36.5386 -36.3587 -36.3267 -36.3229
   -10.8823 -10.2440  -8.2333  -5.7492  -3.6346  -3.1922  -2.7146  -2.3299
    -2.2074  -1.5700  -1.0828  -0.9627  -0.6741  -0.3565  -0.0556   0.0225
     0.5557   0.6021   1.0596   1.1960   1.2199   2.5229   2.5283   2.8942
     2.9956   3.1412   3.3507   3.6338   3.9391   4.2281   4.2669   4.4150
     5.2801   5.8173   5.9338   6.0396   6.2656   7.1599   7.1934   7.3980
     7.4266   7.7870   7.8434   8.0731

          k = 0.2000 0.5773 0.1341 ( 18718 PWs)   bands (ev):

   -75.3419 -75.3302 -75.2427 -74.8187 -74.8179 -74.8023 -37.6571 -37.4974
   -37.4949 -37.4360 -37.3963 -37.2275 -36.9836 -36.9579 -36.9331 -36.8490
   -36.7188 -36.7145 -36.5842 -36.5548 -36.5414 -36.3531 -36.3230 -36.3192
   -10.8309 -10.2733  -8.3664  -5.4565  -3.7759  -3.3454  -2.6732  -2.2565
    -2.2470  -1.5537  -1.0860  -0.9876  -0.7043  -0.3275  -0.0573  -0.0114
     0.5284   0.5869   1.0524   1.1884   1.1917   2.6190   2.6384   2.9350
     3.0367   3.2048   3.4623   3.6408   3.9194   4.2701   4.2927   4.4548
     5.1319   5.9182   6.0348   6.0469   6.2562   7.0692   7.0977   7.3846
     7.4038   7.8355   7.8666   8.0230

          k = 0.2333 0.5773 0.1341 ( 18716 PWs)   bands (ev):

   -75.3406 -75.3312 -75.2431 -74.8176 -74.8168 -74.8046 -37.6303 -37.5044
   -37.4970 -37.4443 -37.4149 -37.2275 -36.9777 -36.9503 -36.9293 -36.8356
   -36.7343 -36.7304 -36.5815 -36.5561 -36.5445 -36.3466 -36.3205 -36.3167
   -10.7701 -10.3157  -8.4721  -5.1581  -3.9194  -3.5071  -2.6258  -2.2841
    -2.1899  -1.5478  -1.0888  -1.0151  -0.7284  -0.3050  -0.1271   0.0149
     0.5252   0.5750   1.0537   1.1638   1.1724   2.6979   2.7409   2.9485
     3.0631   3.2826   3.5922   3.6459   3.9079   4.3052   4.3148   4.4622
     5.0128   6.0220   6.0728   6.1282   6.2778   6.9372   6.9725   7.3786
     7.4006   7.8642   7.8862   7.9811

          k = 0.2667 0.5773 0.1341 ( 18714 PWs)   bands (ev):

   -75.3391 -75.3325 -75.2433 -74.8163 -74.8155 -74.8071 -37.6013 -37.5140
   -37.5013 -37.4500 -37.4313 -37.2275 -36.9718 -36.9440 -36.9276 -36.8190
   -36.7495 -36.7462 -36.5792 -36.5566 -36.5476 -36.3394 -36.3195 -36.3159
   -10.7000 -10.3730  -8.5477  -4.8591  -4.0637  -3.6687  -2.5717  -2.3251
    -2.1344  -1.5509  -1.0885  -1.0424  -0.7450  -0.2862  -0.1843   0.0240
     0.5385   0.5665   1.0643   1.1384   1.1522   2.7614   2.8098   2.9559
     3.0975   3.3140   3.6789   3.7160   3.9137   4.2809   4.3542   4.4245
     4.9555   6.0930   6.1523   6.2063   6.3358   6.7699   6.8310   7.3906
     7.4222   7.8307   7.9026   7.9761

          k = 0.3000 0.5773 0.1341 ( 18716 PWs)   bands (ev):

   -75.3374 -75.3339 -75.2435 -74.8149 -74.8142 -74.8099 -37.5733 -37.5235
   -37.5092 -37.4528 -37.4437 -37.2274 -36.9671 -36.9386 -36.9286 -36.7991
   -36.7637 -36.7613 -36.5778 -36.5558 -36.5506 -36.3317 -36.3203 -36.3171
   -10.6208 -10.4456  -8.5922  -4.5720  -4.2075  -3.8162  -2.5102  -2.3762
    -2.0956  -1.5577  -1.0847  -1.0655  -0.7540  -0.2692  -0.2268   0.0240
     0.5549   0.5616   1.0818   1.1182   1.1316   2.8078   2.8356   2.9652
     3.1515   3.2776   3.7434   3.7941   3.9617   4.1766   4.3821   4.4027
     4.9443   6.1533   6.2557   6.2894   6.3887   6.5810   6.7071   7.4331
     7.4733   7.7241   7.9179   7.9617

          k = 0.3333 0.5773 0.1341 ( 18714 PWs)   bands (ev):

   -75.3356 -75.3356 -75.2436 -74.8136 -74.8127 -74.8126 -37.5596 -37.5212
   -37.5212 -37.4511 -37.4511 -37.2274 -36.9651 -36.9330 -36.9330 -36.7771
   -36.7751 -36.7751 -36.5774 -36.5536 -36.5536 -36.3263 -36.3204 -36.3204
   -10.5324 -10.5323  -8.6065  -4.3498  -4.3498  -3.8972  -2.4414  -2.4413
    -2.0809  -1.5615  -1.0788  -1.0787  -0.7565  -0.2526  -0.2525   0.0228
     0.5612   0.5613   1.0964   1.1133   1.1133   2.8327   2.8327   2.9721
     3.2128   3.2128   3.7847   3.8120   4.0528   4.0528   4.3962   4.3962
     4.9444   6.2012   6.3430   6.3430   6.4125   6.4126   6.6609   7.5175
     7.5176   7.5838   7.9341   7.9341

          k = 0.3175 0.5499 0.1341 ( 18720 PWs)   bands (ev):

   -75.3375 -75.3339 -75.2435 -74.8161 -74.8117 -74.8112 -37.5667 -37.5352
   -37.5056 -37.4544 -37.4407 -37.2274 -36.9672 -36.9405 -36.9264 -36.7870
   -36.7868 -36.7506 -36.5777 -36.5563 -36.5503 -36.3301 -36.3258 -36.3131
   -10.6257 -10.4397  -8.5944  -4.4831  -4.3274  -3.7869  -2.5157  -2.3697
    -2.0958  -1.5569  -1.0765  -1.0732  -0.7550  -0.2601  -0.2359   0.0243
     0.5496   0.5662   1.0906   1.1002   1.1408   2.8195   2.8216   2.9638
     3.1784   3.2637   3.7278   3.8026   4.0096   4.1376   4.3844   4.3997
     4.9434   6.0964   6.2444   6.3784   6.4394   6.5308   6.6804   7.3296
     7.6371   7.6635   7.9324   7.9503

          k = 0.3016 0.5224 0.1341 ( 18706 PWs)   bands (ev):

   -75.3396 -75.3320 -75.2433 -74.8193 -74.8101 -74.8096 -37.5789 -37.5500
   -37.4969 -37.4553 -37.4168 -37.2269 -36.9737 -36.9512 -36.9184 -36.7966
   -36.7958 -36.7231 -36.5783 -36.5588 -36.5459 -36.3374 -36.3334 -36.3042
   -10.7266 -10.3388  -8.5600  -4.6138  -4.4328  -3.5603  -2.5931  -2.2985
    -2.1378  -1.5427  -1.0702  -1.0556  -0.7515  -0.2502  -0.2177   0.0278
     0.5191   0.5777   1.0838   1.0932   1.1815   2.7542   2.8053   2.9595
     3.1895   3.2997   3.6072   3.7782   4.0181   4.1979   4.3623   4.4011
     4.9414   5.9001   6.1241   6.4390   6.5166   6.6467   6.7223   7.1173
     7.7413   7.7733   7.9578   7.9594

          k = 0.2857 0.4949 0.1341 ( 18710 PWs)   bands (ev):

   -75.3418 -75.3300 -75.2430 -74.8226 -74.8084 -74.8079 -37.5913 -37.5646
   -37.4961 -37.4547 -37.3836 -37.2256 -36.9842 -36.9648 -36.9094 -36.8046
   -36.8031 -36.6940 -36.5791 -36.5612 -36.5404 -36.3469 -36.3432 -36.2947
   -10.8323 -10.2298  -8.5062  -4.7412  -4.5649  -3.3468  -2.6444  -2.2860
    -2.1500  -1.5210  -1.0726  -1.0148  -0.7462  -0.2230  -0.1974   0.0284
     0.4766   0.5969   1.0775   1.0934   1.2320   2.6553   2.7943   2.9677
     3.2183   3.3171   3.4922   3.7418   4.0207   4.2228   4.3333   4.4083
     4.9390   5.6959   6.0071   6.4857   6.5927   6.6926   6.8181   6.9089
     7.7802   7.8828   7.9492   7.9814

          k = 0.2698 0.4674 0.1341 ( 18740 PWs)   bands (ev):

   -75.3443 -75.3281 -75.2425 -74.8260 -74.8067 -74.8063 -37.6029 -37.5781
   -37.4992 -37.4532 -37.3474 -37.2224 -36.9982 -36.9810 -36.8998 -36.8108
   -36.8090 -36.6644 -36.5799 -36.5634 -36.5333 -36.3587 -36.3552 -36.2850
   -10.9401 -10.1127  -8.4359  -4.8652  -4.6997  -3.2372  -2.6024  -2.3896
    -2.0722  -1.4973  -1.0842  -0.9559  -0.7367  -0.1793  -0.1764   0.0193
     0.4358   0.6244   1.0718   1.1022   1.2895   2.5612   2.7880   2.9721
     3.2381   3.3130   3.4160   3.6977   4.0061   4.2131   4.3045   4.4196
     4.9346   5.4975   5.8992   6.5181   6.6441   6.7016   6.7161   6.9186
     7.8006   7.8839   7.9855   7.9898

          k = 0.2540 0.4399 0.1341 ( 18738 PWs)   bands (ev):

   -75.3469 -75.3260 -75.2419 -74.8294 -74.8050 -74.8046 -37.6130 -37.5901
   -37.5042 -37.4508 -37.3128 -37.2148 -37.0152 -36.9994 -36.8898 -36.8153
   -36.8138 -36.6362 -36.5805 -36.5655 -36.5235 -36.3726 -36.3693 -36.2752
   -11.0479  -9.9877  -8.3513  -4.9853  -4.8307  -3.2683  -2.5393  -2.4377
    -1.9700  -1.4805  -1.1076  -0.8815  -0.7194  -0.1608  -0.1208  -0.0003
     0.4124   0.6600   1.0679   1.1208   1.3523   2.4906   2.7860   2.9579
     3.2384   3.2859   3.3926   3.6531   3.9811   4.1773   4.2810   4.4252
     4.9267   5.3104   5.8023   6.5199   6.5464   6.6770   6.6974   6.9921
     7.8192   7.8284   7.9942   8.0359

          k = 0.2381 0.4124 0.1341 ( 18734 PWs)   bands (ev):

   -75.3496 -75.3240 -75.2412 -74.8328 -74.8032 -74.8029 -37.6212 -37.6002
   -37.5103 -37.4479 -37.2853 -37.1988 -37.0349 -37.0196 -36.8799 -36.8180
   -36.8175 -36.6118 -36.5811 -36.5676 -36.5090 -36.3883 -36.3852 -36.2652
   -11.1540  -9.8549  -8.2548  -5.1017  -4.9551  -3.3753  -2.7159  -2.2230
    -1.8574  -1.4817  -1.1419  -0.7945  -0.6913  -0.1715  -0.0499  -0.0050
     0.4146   0.7025   1.0667   1.1507   1.4211   2.4495   2.7855   2.9216
     3.2377   3.2407   3.3942   3.6149   3.9601   4.1199   4.2627   4.4195
     4.9156   5.1373   5.7170   6.3695   6.5380   6.6806   6.6823   7.0372
     7.7660   7.8383   7.9999   8.0606

          k = 0.2222 0.3849 0.1341 ( 18720 PWs)   bands (ev):

   -75.3524 -75.3220 -75.2404 -74.8362 -74.8015 -74.8012 -37.6275 -37.6082
   -37.5172 -37.4444 -37.2685 -37.1717 -37.0568 -37.0411 -36.8703 -36.8202
   -36.8191 -36.5941 -36.5810 -36.5697 -36.4882 -36.4058 -36.4029 -36.2554
   -11.2570  -9.7144  -8.1481  -5.2142  -5.0714  -3.5108  -2.9121  -2.0214
    -1.7371  -1.5050  -1.1833  -0.6971  -0.6506  -0.2256   0.0308   0.0390
     0.4419   0.7500   1.0695   1.1928   1.4988   2.4329   2.7803   2.8775
     3.1780   3.2532   3.3939   3.5866   3.9562   4.0434   4.2473   4.4007
     4.9043   4.9787   5.6440   6.2377   6.4961   6.6566   6.6903   7.0591
     7.7047   7.8537   8.0082   8.0627

          k = 0.2063 0.3574 0.1341 ( 18704 PWs)   bands (ev):

   -75.3552 -75.3201 -75.2395 -74.8396 -74.7998 -74.7995 -37.6315 -37.6140
   -37.5245 -37.4403 -37.2595 -37.1378 -37.0807 -37.0626 -36.8612 -36.8218
   -36.8184 -36.5858 -36.5779 -36.5718 -36.4619 -36.4248 -36.4214 -36.2457
   -11.3557  -9.5664  -8.0332  -5.3231  -5.1784  -3.6570  -3.1226  -1.8941
    -1.6103  -1.5262  -1.2243  -0.5950  -0.5907  -0.3035   0.1187   0.1313
     0.4900   0.7997   1.0778   1.2478   1.5880   2.4244   2.7594   2.8451
     3.1243   3.2661   3.3903   3.5688   3.9513   3.9733   4.2316   4.3693
     4.8329   4.8980   5.5837   6.1332   6.4180   6.6225   6.7125   7.0623
     7.6494   7.8608   8.0178   8.0516

          k = 0.1905 0.3299 0.1341 ( 18684 PWs)   bands (ev):

   -75.3580 -75.3181 -75.2386 -74.8428 -74.7981 -74.7979 -37.6332 -37.6173
   -37.5321 -37.4358 -37.2542 -37.1124 -37.1062 -37.0735 -36.8529 -36.8224
   -36.8160 -36.5850 -36.5739 -36.5723 -36.4469 -36.4451 -36.4260 -36.2362
   -11.4494  -9.4111  -7.9118  -5.4289  -5.2748  -3.8062  -3.3425  -1.9086
    -1.5199  -1.4782  -1.2319  -0.5337  -0.4767  -0.3775   0.2107   0.2656
     0.5543   0.8491   1.0940   1.3146   1.6885   2.4026   2.7122   2.8432
     3.0934   3.2699   3.3931   3.5619   3.8493   4.0063   4.2129   4.3263
     4.6978   4.9024   5.5368   6.0554   6.3187   6.5836   6.7412   7.0490
     7.6030   7.8571   8.0256   8.0345

          k = 0.1746 0.3024 0.1341 ( 18688 PWs)   bands (ev):

   -75.3608 -75.3163 -75.2376 -74.8460 -74.7965 -74.7963 -37.6326 -37.6182
   -37.5397 -37.4309 -37.2505 -37.1331 -37.1247 -37.0467 -36.8454 -36.8220
   -36.8119 -36.5856 -36.5762 -36.5686 -36.4663 -36.4661 -36.3956 -36.2271
   -11.5374  -9.2487  -7.7860  -5.5322  -5.3594  -3.9538  -3.5676  -2.0281
    -1.5601  -1.3421  -1.1627  -0.5469  -0.3587  -0.3563   0.3041   0.4303
     0.6322   0.8958   1.1212   1.3896   1.7949   2.3590   2.6418   2.8785
     3.0876   3.2646   3.4071   3.5665   3.7451   4.0432   4.1936   4.2736
     4.5715   4.9217   5.5038   6.0000   6.2105   6.5449   6.7722   7.0207
     7.5655   7.8421   8.0146   8.0277

          k = 0.1587 0.2749 0.1341 ( 18684 PWs)   bands (ev):

   -75.3635 -75.3146 -75.2366 -74.8489 -74.7950 -74.7948 -37.6294 -37.6165
   -37.5472 -37.4256 -37.2477 -37.1612 -37.1490 -37.0089 -36.8388 -36.8205
   -36.8065 -36.5865 -36.5787 -36.5670 -36.4881 -36.4879 -36.3629 -36.2184
   -11.6190  -9.0795  -7.6578  -5.6342  -5.4309  -4.0971  -3.7937  -2.1946
    -1.6505  -1.2031  -1.0575  -0.6299  -0.2467  -0.2306   0.3960   0.5919
     0.7355   0.9380   1.1643   1.4665   1.8912   2.3142   2.5639   2.9409
     3.0969   3.2570   3.4294   3.5808   3.6492   4.0582   4.1925   4.2139
     4.4542   4.9571   5.4851   5.9567   6.1054   6.5117   6.8036   6.9801
     7.5345   7.8153   7.9923   8.0205

          k = 0.1429 0.2474 0.1341 ( 18682 PWs)   bands (ev):

   -75.3661 -75.3129 -75.2357 -74.8517 -74.7936 -74.7935 -37.6238 -37.6124
   -37.5545 -37.4200 -37.2464 -37.1902 -37.1741 -36.9710 -36.8327 -36.8180
   -36.8001 -36.5879 -36.5815 -36.5671 -36.5101 -36.5098 -36.3309 -36.2102
   -11.6939  -8.9038  -7.5298  -5.7364  -5.4874  -4.2339  -4.0166  -2.3847
    -1.7588  -1.0625  -0.9639  -0.7067  -0.1071  -0.1011   0.4831   0.6919
     0.8947   0.9740   1.2310   1.5357   1.9404   2.3168   2.4947   3.0144
     3.1114   3.2526   3.4589   3.5468   3.6263   4.0291   4.1513   4.2291
     4.3475   5.0053   5.4806   5.9013   6.0258   6.4884   6.8346   6.9318
     7.5056   7.7755   7.9658   8.0020

          k = 0.1270 0.2199 0.1341 ( 18690 PWs)   bands (ev):

   -75.3685 -75.3114 -75.2348 -74.8543 -74.7923 -74.7922 -37.6158 -37.6058
   -37.5613 -37.4142 -37.2492 -37.2197 -37.1961 -36.9347 -36.8267 -36.8145
   -36.7933 -36.5901 -36.5849 -36.5688 -36.5314 -36.5307 -36.3005 -36.2027
   -11.7618  -8.7222  -7.4052  -5.8410  -5.5270  -4.3627  -4.2317  -2.5871
    -1.8706  -0.9341  -0.9215  -0.7202   0.0302   0.0452   0.5621   0.7396
     1.0022   1.0663   1.3295   1.5866   1.9234   2.3990   2.4460   3.0833
     3.1262   3.2562   3.4797   3.4980   3.6630   3.9740   4.0920   4.2550
     4.2851   5.0599   5.4904   5.8123   5.9890   6.4788   6.8649   6.8805
     7.4745   7.7214   7.9302   7.9718

          k = 0.1111 0.1924 0.1341 ( 18664 PWs)   bands (ev):

   -75.3707 -75.3100 -75.2339 -74.8566 -74.7911 -74.7910 -37.6055 -37.5967
   -37.5676 -37.4084 -37.2615 -37.2495 -37.2087 -36.9008 -36.8206 -36.8099
   -36.7865 -36.5943 -36.5897 -36.5726 -36.5511 -36.5482 -36.2724 -36.1959
   -11.8222  -8.5352  -7.2874  -5.9507  -5.5474  -4.4825  -4.4342  -2.7941
    -1.9786  -0.9838  -0.7812  -0.6502   0.1603   0.2029   0.6293   0.7553
     1.0217   1.2041   1.4508   1.6123   1.8926   2.4223   2.5284   3.1334
     3.1404   3.2732   3.4340   3.5513   3.6983   3.9092   4.0467   4.1821
     4.3464   5.1122   5.5146   5.7080   5.9713   6.4845   6.8313   6.8946
     7.4380   7.6522   7.8754   7.9312

          k = 0.0952 0.1650 0.1341 ( 18668 PWs)   bands (ev):

   -75.3726 -75.3088 -75.2331 -74.8587 -74.7900 -74.7900 -37.5932 -37.5853
   -37.5729 -37.4027 -37.2839 -37.2793 -37.2115 -36.8701 -36.8144 -36.8042
   -36.7800 -36.6033 -36.5977 -36.5779 -36.5666 -36.5596 -36.2470 -36.1898
   -11.8751  -8.3434  -7.1803  -6.0687  -5.5462  -4.6187  -4.5929  -2.9991
    -2.0784  -1.0525  -0.6426  -0.5530   0.2839   0.3597   0.6816   0.7439
     1.0334   1.3059   1.5386   1.6141   1.9157   2.4175   2.6723   3.1554
     3.1610   3.3033   3.4143   3.6201   3.7104   3.8453   4.0284   4.1393
     4.4074   5.1532   5.5523   5.6009   5.9542   6.5038   6.7898   6.9240
     7.3936   7.5705   7.7846   7.8832

          k = 0.0794 0.1375 0.1341 ( 18672 PWs)   bands (ev):

   -75.3743 -75.3078 -75.2324 -74.8605 -74.7891 -74.7891 -37.5827 -37.5736
   -37.5718 -37.3975 -37.3104 -37.3086 -37.2100 -36.8432 -36.8081 -36.7972
   -36.7738 -36.6182 -36.6107 -36.5817 -36.5758 -36.5661 -36.2249 -36.1845
   -11.9201  -8.1480  -7.0875  -6.1980  -5.5221  -4.7802  -4.6942  -3.1958
    -2.1670  -1.1176  -0.5070  -0.4487   0.3899   0.5064   0.7113   0.7208
     1.0413   1.3795   1.5599   1.5989   2.0148   2.4196   2.8112   3.1738
     3.1784   3.3378   3.4168   3.6764   3.6888   3.8158   4.0358   4.1421
     4.4651   5.1759   5.4934   5.6006   5.9300   6.5289   6.7649   6.9531
     7.3392   7.4837   7.6598   7.8315

          k = 0.0635 0.1100 0.1341 ( 18682 PWs)   bands (ev):

   -75.3758 -75.3069 -75.2319 -74.8619 -74.7884 -74.7883 -37.5841 -37.5599
   -37.5565 -37.3930 -37.3380 -37.3369 -37.2071 -36.8214 -36.8021 -36.7885
   -36.7681 -36.6353 -36.6262 -36.5838 -36.5806 -36.5707 -36.2063 -36.1801
   -11.9572  -7.9506  -7.0117  -6.3404  -5.4750  -4.9144  -4.7876  -3.3771
    -2.2421  -1.1732  -0.3755  -0.3417   0.4564   0.5925   0.7055   0.7622
     1.0499   1.4243   1.5588   1.5732   2.1383   2.4197   2.9288   3.1973
     3.1980   3.3731   3.4293   3.6450   3.6484   3.8931   4.0639   4.1875
     4.5168   5.1769   5.3847   5.6531   5.8962   6.5433   6.7709   6.9810
     7.2735   7.4030   7.5337   7.7802

          k = 0.0476 0.0825 0.1341 ( 18702 PWs)   bands (ev):

   -75.3769 -75.3062 -75.2314 -74.8631 -74.7878 -74.7877 -37.5871 -37.5425
   -37.5399 -37.3900 -37.3648 -37.3630 -37.2041 -36.8057 -36.7965 -36.7776
   -36.7630 -36.6519 -36.6412 -36.5850 -36.5834 -36.5746 -36.1915 -36.1767
   -11.9861  -7.7538  -6.9541  -6.4951  -5.4074  -5.0187  -4.8753  -3.5348
    -2.3022  -1.2176  -0.2506  -0.2346   0.4629   0.5400   0.8040   0.8255
     1.0604   1.4433   1.5405   1.5618   2.2489   2.4157   3.0132   3.2241
     3.2297   3.4079   3.4375   3.5872   3.5943   4.0221   4.1210   4.2489
     4.5608   5.1555   5.2750   5.7024   5.8557   6.5356   6.8147   7.0056
     7.2005   7.3395   7.4295   7.7340

          k = 0.0317 0.0550 0.1341 ( 18714 PWs)   bands (ev):

   -75.3777 -75.3057 -75.2311 -74.8640 -74.7873 -74.7873 -37.5894 -37.5247
   -37.5232 -37.3940 -37.3894 -37.3802 -37.2017 -36.7957 -36.7920 -36.7662
   -36.7585 -36.6661 -36.6537 -36.5857 -36.5850 -36.5778 -36.1808 -36.1742
   -12.0068  -7.5634  -6.9144  -6.6566  -5.3244  -5.0924  -4.9607  -3.6591
    -2.3459  -1.2497  -0.1369  -0.1321   0.4232   0.4564   0.9007   0.9011
     1.0701   1.4510   1.5044   1.5637   2.3330   2.4096   3.0638   3.2612
     3.2689   3.4312   3.4313   3.5311   3.5481   4.1569   4.2007   4.3059
     4.5954   5.1154   5.1693   5.7419   5.8159   6.5147   6.8820   7.0237
     7.1315   7.2999   7.3517   7.6974

          k = 0.0159 0.0275 0.1341 ( 18714 PWs)   bands (ev):

   -75.3782 -75.3054 -75.2309 -74.8645 -74.7871 -74.7871 -37.5908 -37.5094
   -37.5090 -37.4096 -37.4088 -37.3816 -37.2000 -36.7900 -36.7891 -36.7574
   -36.7553 -36.6761 -36.6621 -36.5861 -36.5859 -36.5799 -36.1743 -36.1727
   -12.0193  -7.3960  -6.8915  -6.8074  -5.2330  -5.1360  -5.0473  -3.7395
    -2.3725  -1.2691  -0.0466  -0.0463   0.3698   0.3786   0.9637   0.9660
     1.0758   1.4570   1.4732   1.5599   2.3850   2.4046   3.0886   3.3080
     3.3143   3.4050   3.4127   3.5088   3.5184   4.2646   4.2755   4.3464
     4.6196   5.0705   5.0840   5.7672   5.7866   6.4951   6.9533   7.0335
     7.0752   7.2822   7.2985   7.6742

          k = 0.0000 0.0000 0.1341 ( 18720 PWs)   bands (ev):

   -75.3784 -75.3053 -75.2308 -74.8646 -74.7870 -74.7870 -37.5913 -37.5028
   -37.5027 -37.4170 -37.4169 -37.3813 -37.1995 -36.7881 -36.7881 -36.7541
   -36.7541 -36.6798 -36.6651 -36.5863 -36.5862 -36.5807 -36.1721 -36.1721
   -12.0235  -7.3139  -6.8841  -6.8840  -5.1504  -5.1504  -5.1271  -3.7675
    -2.3814  -1.2755  -0.0083  -0.0083   0.3427   0.3428   0.9890   0.9891
     1.0771   1.4601   1.4602   1.5567   2.4026   2.4026   3.0959   3.3608
     3.3608   3.3620   3.3635   3.5093   3.5093   4.3071   4.3071   4.3617
     4.6291   5.0491   5.0491   5.7759   5.7759   6.4872   7.0021   7.0363
     7.0363   7.2779   7.2780   7.6664

     Writing all to output data dir ../../outdir/borophene.save/

     init_run     :      5.91s CPU     15.42s WALL (       1 calls)
     electrons    :   3653.29s CPU   2016.19s WALL (       1 calls)

     Called by init_run:
     wfcinit      :      0.00s CPU      0.01s WALL (       1 calls)
     potinit      :      0.20s CPU      0.15s WALL (       1 calls)
     hinit0       :      1.69s CPU      1.54s WALL (       1 calls)

     Called by electrons:
     c_bands      :   3653.28s CPU   2016.18s WALL (       1 calls)
     v_of_rho     :      0.19s CPU      0.14s WALL (       1 calls)
     newd         :      3.85s CPU     13.54s WALL (       1 calls)

     Called by c_bands:
     init_us_2    :      1.45s CPU      1.36s WALL (      50 calls)
     init_us_2:cp :      1.45s CPU      1.36s WALL (      50 calls)
     cegterg      :   3426.38s CPU   1942.27s WALL (     130 calls)

     Called by *egterg:
     cdiaghg      :     18.38s CPU     15.82s WALL (    2195 calls)
     h_psi        :   2597.11s CPU   1513.50s WALL (    2325 calls)
     s_psi        :    258.32s CPU    137.50s WALL (    2325 calls)
     g_psi        :      8.47s CPU      7.46s WALL (    2145 calls)

     Called by h_psi:
     h_psi:calbec :    292.75s CPU    168.71s WALL (    2325 calls)
     vloc_psi     :   2027.42s CPU   1107.12s WALL (    2325 calls)
     add_vuspsi   :    268.71s CPU    230.06s WALL (    2325 calls)

     General routines
     calbec       :    292.72s CPU    168.70s WALL (    2325 calls)
     fft          :      0.94s CPU      0.84s WALL (      12 calls)
     fftw         :   1615.71s CPU    777.11s WALL (  149694 calls)
     davcio       :      0.19s CPU      2.22s WALL (     100 calls)

     Parallel routines

     PWSCF        :      1h 0m CPU  33m57.28s WALL


   This run was terminated on:  20: 4:28  30Jul2025            

=------------------------------------------------------------------------------=
   JOB DONE.
=------------------------------------------------------------------------------=
