
     Program BANDS v.7.2 starts on 30Jul2025 at 20: 4:44 

     This program is part of the open-source Quantum ESPRESSO suite
     for quantum simulation of materials; please cite
         "P. Giannozzi et al., J. Phys.:Condens. Matter 21 395502 (2009);
         "P. Giannozzi et al., J. Phys.:Condens. Matter 29 465901 (2017);
         "P. Giannozzi et al., J. Chem. Phys. 152 154105 (2020);
          URL http://www.quantum-espresso.org", 
     in publications or presentations arising from this work. More details at
     http://www.quantum-espresso.org/quote

     Parallel version (MPI & OpenMP), running on       2 processor cores
     Number of MPI processes:                 1
     Threads/MPI process:                     2

     MPI processes distributed on     1 nodes
     152 MiB available memory on the printing compute node when the environment starts


     Reading xml data from directory:

     ../../outdir/borophene.save/
     file B.pbesol-n-rrkjus_psl.1.0.0.UPF: wavefunction(s)  2S renormalized

     IMPORTANT: XC functional enforced from input :
     Exchange-correlation= PBESOL
                           (   1   4  10   8   0   0   0)
     Any further DFT definition will be discarded
     Please, verify this is what you really want


     G-vector sticks info
     --------------------
     sticks:   dense  smooth     PW     G-vecs:    dense   smooth      PW
     Sum        1357    1357    379               149567   149567   22295

     Using Slab Decomposition


     Check: negative core charge=   -0.000001

     negative rho (up, down):  8.017E-01 0.000E+00
     Reading collected, re-writing distributed wavefunctions
     high-symmetry point:  0.0000 0.0000 0.1341   x coordinate   0.0000
     high-symmetry point:  0.0000 0.5774 0.1341   x coordinate   0.5774
     high-symmetry point:  0.3333 0.5773 0.1341   x coordinate   0.9107
     high-symmetry point:  0.0000 0.0000 0.1341   x coordinate   1.5773

     Plottable bands (eV) written to file alphabands.dat.gnu
     Bands written to file alphabands.dat

 %%%%%%%%%%%%%%%%%%%%%%%%%%%%%%%%%%%%%%%%%%%%%%%%%%%%%%%%%%%%%%%%%%%%%%%%%%%%%%
     Error in routine smallgk (1):
      Not a group
 %%%%%%%%%%%%%%%%%%%%%%%%%%%%%%%%%%%%%%%%%%%%%%%%%%%%%%%%%%%%%%%%%%%%%%%%%%%%%%

     stopping ...
