
     Program PWSCF v.7.2 starts on 30Jul2025 at 10:33: 4 

     This program is part of the open-source Quantum ESPRESSO suite
     for quantum simulation of materials; please cite
         "P. Giannozzi et al., J. Phys.:Condens. Matter 21 395502 (2009);
         "P. Giannozzi et al., J. Phys.:Condens. Matter 29 465901 (2017);
         "P. Giannozzi et al., J. Chem. Phys. 152 154105 (2020);
          URL http://www.quantum-espresso.org", 
     in publications or presentations arising from this work. More details at
     http://www.quantum-espresso.org/quote

     Parallel version (MPI & OpenMP), running on       2 processor cores
     Number of MPI processes:                 1
     Threads/MPI process:                     2

     MPI processes distributed on     1 nodes
     699 MiB available memory on the printing compute node when the environment starts

     Reading input from alpha_ML.relax.in

     Current dimensions of program PWSCF are:
     Max number of different atomic species (ntypx) = 10
     Max number of k-points (npk) =  40000
     Max angular momentum in pseudopotentials (lmaxx) =  4
     file B.pbesol-n-rrkjus_psl.1.0.0.UPF: wavefunction(s)  2S renormalized

     Subspace diagonalization in iterative solution of the eigenvalue problem:
     a serial algorithm will be used


     G-vector sticks info
     --------------------
     sticks:   dense  smooth     PW     G-vecs:    dense   smooth      PW
     Sum        1135    1135    313               113857   113857   16797

     Using Slab Decomposition



     bravais-lattice index     =            4
     lattice parameter (alat)  =       9.0360  a.u.
     unit-cell volume          =    2382.6030 (a.u.)^3
     number of atoms/cell      =           14
     number of atomic types    =            2
     number of electrons       =       114.00
     number of Kohn-Sham states=           68
     kinetic-energy cutoff     =      50.0000  Ry
     charge density cutoff     =     200.0000  Ry
     scf convergence threshold =      1.0E-06
     mixing beta               =       0.7000
     number of iterations used =            8  plain     mixing
     energy convergence thresh.=      1.0E-03
     force convergence thresh. =      1.0E-03
     Exchange-correlation= SLA  PW   PSX  PSC
                           (   1   4  10   8   0   0   0)
     nstep                     =           50


     celldm(1)=   9.036000  celldm(2)=   0.000000  celldm(3)=   3.729000
     celldm(4)=   0.000000  celldm(5)=   0.000000  celldm(6)=   0.000000

     crystal axes: (cart. coord. in units of alat)
               a(1) = (   1.000000   0.000000   0.000000 )  
               a(2) = (  -0.500000   0.866025   0.000000 )  
               a(3) = (   0.000000   0.000000   3.729000 )  

     reciprocal axes: (cart. coord. in units 2 pi/alat)
               b(1) = (  1.000000  0.577350 -0.000000 )  
               b(2) = (  0.000000  1.154701  0.000000 )  
               b(3) = (  0.000000 -0.000000  0.268168 )  


     PseudoPot. # 1 for B  read from file:
     ../pseudo/B.pbesol-n-rrkjus_psl.1.0.0.UPF
     MD5 check sum: a3839a09b1a4e02f2a06a66adc9253fc
     Pseudo is Ultrasoft + core correction, Zval =  3.0
     Generated using &quot;atomic&quot; code by A. Dal Corso  v.6.3MaX
     Using radial grid of 1059 points,  4 beta functions with: 
                l(1) =   0
                l(2) =   0
                l(3) =   1
                l(4) =   1
     Q(r) pseudized with 0 coefficients 


     PseudoPot. # 2 for Re read from file:
     ../pseudo/re_pbesol_v1.2.uspp.F.UPF
     MD5 check sum: aaf9138663fa2d46e1797bae542d0e3d
     Pseudo is Ultrasoft + core correction, Zval = 15.0
     Generated by new atomic code, or converted to UPF format
     Using radial grid of  981 points,  8 beta functions with: 
                l(1) =   0
                l(2) =   0
                l(3) =   1
                l(4) =   1
                l(5) =   2
                l(6) =   2
                l(7) =   3
                l(8) =   3
     Q(r) pseudized with  8 coefficients,  rinner =    1.150   1.150   1.150
                                                       1.150   1.150   1.150
                                                       1.150

     atomic species   valence    mass     pseudopotential
        B              3.00    10.81100     B ( 1.00)
        Re            15.00   186.20700     Re( 1.00)

      6 Sym. Ops. (no inversion) found



   Cartesian axes

     site n.     atom                  positions (alat units)
         1           Re  tau(   1) = (   0.3333330   0.0000000   0.0000000  )
         2           Re  tau(   2) = (  -0.1666665   0.2886748   0.0000000  )
         3           Re  tau(   3) = (   0.3333335   0.5773506   0.0000000  )
         4           Re  tau(   4) = (   0.0000000   0.0000000   0.4661250  )
         5           Re  tau(   5) = (   0.5000005   0.2886748   0.4661250  )
         6           Re  tau(   6) = (  -0.0000005   0.5773506   0.4661250  )
         7           B   tau(   7) = (   0.3333330   0.0000000   0.9322500  )
         8           B   tau(   8) = (   0.6666670   0.0000000   0.9322500  )
         9           B   tau(   9) = (  -0.1666665   0.2886748   0.9322500  )
        10           B   tau(  10) = (   0.1666665   0.2886748   0.9322500  )
        11           B   tau(  11) = (   0.5000005   0.2886748   0.9322500  )
        12           B   tau(  12) = (  -0.3333335   0.5773506   0.9322500  )
        13           B   tau(  13) = (  -0.0000005   0.5773506   0.9322500  )
        14           B   tau(  14) = (   0.3333335   0.5773506   0.9322500  )

     number of k points=     2  Marzari-Vanderbilt smearing, width (Ry)=  0.0200
                       cart. coord. in units 2pi/alat
        k(    1) = (   0.0000000   0.0000000   0.0000000), wk =   0.5000000
        k(    2) = (   0.0000000  -0.5773503   0.0000000), wk =   1.5000000

     Dense  grid:   113857 G-vectors     FFT dimensions: (  45,  45, 160)

     Estimated max dynamical RAM per process >       1.15 GB

     Check: negative core charge=   -0.000002

     Initial potential from superposition of free atoms

     starting charge     110.9975, renormalised to     114.0000

     negative rho (up, down):  8.045E-01 0.000E+00
     Starting wfcs are  110 randomized atomic wfcs

     total cpu time spent up to now is       13.7 secs

     per-process dynamical memory:   165.0 Mb

     Self-consistent Calculation

     iteration #  1     ecut=    50.00 Ry     beta= 0.70
     Davidson diagonalization with overlap
     ethr =  1.00E-02,  avg # of iterations =  2.0

     negative rho (up, down):  7.999E-01 0.000E+00

     total cpu time spent up to now is       29.6 secs

     total energy              =   -1157.74818437 Ry
     estimated scf accuracy    <      40.70607619 Ry

     iteration #  2     ecut=    50.00 Ry     beta= 0.70
     Davidson diagonalization with overlap
     ethr =  1.00E-02,  avg # of iterations = 17.0

     negative rho (up, down):  7.831E-01 0.000E+00

     total cpu time spent up to now is       54.1 secs

     total energy              =   -1040.62747705 Ry
     estimated scf accuracy    <    3145.67632992 Ry

     iteration #  3     ecut=    50.00 Ry     beta= 0.70
     Davidson diagonalization with overlap
     ethr =  1.00E-02,  avg # of iterations =  9.5

     negative rho (up, down):  7.812E-01 0.000E+00

     total cpu time spent up to now is       61.1 secs

     total energy              =   -1183.98321109 Ry
     estimated scf accuracy    <     245.32188208 Ry

     iteration #  4     ecut=    50.00 Ry     beta= 0.70
     Davidson diagonalization with overlap
     ethr =  1.00E-02,  avg # of iterations =  8.0

     negative rho (up, down):  7.945E-01 0.000E+00

     total cpu time spent up to now is       73.2 secs

     total energy              =   -1189.84880781 Ry
     estimated scf accuracy    <      36.48640786 Ry

     iteration #  5     ecut=    50.00 Ry     beta= 0.70
     Davidson diagonalization with overlap
     ethr =  1.00E-02,  avg # of iterations =  5.5

     negative rho (up, down):  8.092E-01 0.000E+00

     total cpu time spent up to now is       83.8 secs

     total energy              =   -1191.58117132 Ry
     estimated scf accuracy    <       0.65237930 Ry

     iteration #  6     ecut=    50.00 Ry     beta= 0.70
     Davidson diagonalization with overlap
     ethr =  5.72E-04,  avg # of iterations =  9.5

     negative rho (up, down):  8.083E-01 0.000E+00

     total cpu time spent up to now is       85.3 secs

     total energy              =   -1191.66452717 Ry
     estimated scf accuracy    <       4.33164092 Ry

     iteration #  7     ecut=    50.00 Ry     beta= 0.70
     Davidson diagonalization with overlap
     ethr =  5.72E-04,  avg # of iterations =  2.5

     negative rho (up, down):  8.075E-01 0.000E+00

     total cpu time spent up to now is       93.5 secs

     total energy              =   -1191.70585766 Ry
     estimated scf accuracy    <       0.71610383 Ry

     iteration #  8     ecut=    50.00 Ry     beta= 0.70
     Davidson diagonalization with overlap
     ethr =  5.72E-04,  avg # of iterations =  3.5

     negative rho (up, down):  8.102E-01 0.000E+00

     total cpu time spent up to now is      102.1 secs

     total energy              =   -1191.79341622 Ry
     estimated scf accuracy    <       0.33140844 Ry

     iteration #  9     ecut=    50.00 Ry     beta= 0.70
     Davidson diagonalization with overlap
     ethr =  2.91E-04,  avg # of iterations =  1.0

     negative rho (up, down):  8.114E-01 0.000E+00

     total cpu time spent up to now is      110.2 secs

     total energy              =   -1191.77971286 Ry
     estimated scf accuracy    <       0.33422209 Ry

     iteration # 10     ecut=    50.00 Ry     beta= 0.70
     Davidson diagonalization with overlap
     ethr =  2.91E-04,  avg # of iterations =  1.0

     negative rho (up, down):  8.130E-01 0.000E+00

     total cpu time spent up to now is      118.4 secs

     total energy              =   -1191.77282391 Ry
     estimated scf accuracy    <       0.13078894 Ry

     iteration # 11     ecut=    50.00 Ry     beta= 0.70
     Davidson diagonalization with overlap
     ethr =  1.15E-04,  avg # of iterations =  2.0

     negative rho (up, down):  8.132E-01 0.000E+00

     total cpu time spent up to now is      114.5 secs

     total energy              =   -1191.77730638 Ry
     estimated scf accuracy    <       0.00294969 Ry

     iteration # 12     ecut=    50.00 Ry     beta= 0.70
     Davidson diagonalization with overlap
     ethr =  2.59E-06,  avg # of iterations = 12.5

     negative rho (up, down):  8.131E-01 0.000E+00

     total cpu time spent up to now is      126.8 secs

     total energy              =   -1191.77770268 Ry
     estimated scf accuracy    <       0.00350339 Ry

     iteration # 13     ecut=    50.00 Ry     beta= 0.70
     Davidson diagonalization with overlap
     ethr =  2.59E-06,  avg # of iterations =  2.5

     negative rho (up, down):  8.130E-01 0.000E+00

     total cpu time spent up to now is      135.2 secs

     total energy              =   -1191.77798120 Ry
     estimated scf accuracy    <       0.00043033 Ry

     iteration # 14     ecut=    50.00 Ry     beta= 0.70
     Davidson diagonalization with overlap
     ethr =  3.77E-07,  avg # of iterations =  3.5

     negative rho (up, down):  8.130E-01 0.000E+00

     total cpu time spent up to now is      143.9 secs

     total energy              =   -1191.77800845 Ry
     estimated scf accuracy    <       0.00013195 Ry

     iteration # 15     ecut=    50.00 Ry     beta= 0.70
     Davidson diagonalization with overlap
     ethr =  1.16E-07,  avg # of iterations =  1.5

     negative rho (up, down):  8.130E-01 0.000E+00

     total cpu time spent up to now is      199.3 secs

     total energy              =   -1191.77800678 Ry
     estimated scf accuracy    <       0.00004494 Ry

     iteration # 16     ecut=    50.00 Ry     beta= 0.70
     Davidson diagonalization with overlap
     ethr =  3.94E-08,  avg # of iterations =  4.0

     negative rho (up, down):  8.130E-01 0.000E+00

     total cpu time spent up to now is      210.2 secs

     total energy              =   -1191.77800941 Ry
     estimated scf accuracy    <       0.00000459 Ry

     iteration # 17     ecut=    50.00 Ry     beta= 0.70
     Davidson diagonalization with overlap
     ethr =  4.03E-09,  avg # of iterations =  4.5

     negative rho (up, down):  8.130E-01 0.000E+00

     total cpu time spent up to now is      219.8 secs

     total energy              =   -1191.77800986 Ry
     estimated scf accuracy    <       0.00000142 Ry

     iteration # 18     ecut=    50.00 Ry     beta= 0.70
     Davidson diagonalization with overlap
     ethr =  1.24E-09,  avg # of iterations =  4.5

     negative rho (up, down):  8.130E-01 0.000E+00

     total cpu time spent up to now is      228.8 secs

     End of self-consistent calculation

          k = 0.0000 0.0000 0.0000 ( 14217 PWs)   bands (ev):

   -75.0977 -75.0236 -74.9825 -74.7244 -74.6444 -74.6444 -37.1740 -37.1591
   -37.1591 -37.1161 -37.1161 -36.9866 -36.9132 -36.6505 -36.6505 -36.5721
   -36.5411 -36.4742 -36.4742 -36.4398 -36.4289 -36.4288 -36.0421 -36.0421
   -11.9600  -7.4995  -7.4344  -7.4343  -5.0069  -5.0069  -4.5381  -3.2484
    -2.3966  -1.3220   0.7969   0.7970   1.0848   1.3995   1.3996   1.6868
     1.7788   1.7789   2.0134   2.0135   2.9578   2.9578   2.9739   3.4768
     3.4858   3.4912   3.4912   3.7498   3.8205   3.8205   4.0061   4.0061
     4.5162   5.4966   5.4966   5.5128   5.5128   6.4471   6.7506   6.7507
     6.8478   6.8478   7.5960   7.5961

          k = 0.0000-0.5774 0.0000 ( 14236 PWs)   bands (ev):

   -75.0620 -75.0467 -74.9954 -74.6801 -74.6800 -74.6533 -37.4065 -37.0952
   -37.0900 -37.0622 -36.9963 -36.9657 -36.7287 -36.6973 -36.6937 -36.6672
   -36.5298 -36.5192 -36.4363 -36.4127 -36.3950 -36.2471 -36.2168 -36.2132
   -11.0433 -10.2362  -7.8020  -6.5211  -3.7299  -3.3912  -2.5740  -2.4484
    -1.7227  -0.8475  -0.7350  -0.4561  -0.3595  -0.2430   0.2581   0.6739
     1.0823   1.1939   1.5076   1.5189   1.7027   2.3429   2.3460   2.4430
     2.6925   3.2817   3.5394   3.5928   4.1330   4.3472   4.6065   4.6938
     5.7313   5.7709   6.0043   6.3018   6.4644   7.2993   7.3649   7.5266
     7.5373   7.5768   7.6617   8.5382

     the Fermi energy is     5.5794 ev

!    total energy              =   -1191.77801004 Ry
     estimated scf accuracy    <       0.00000004 Ry
     smearing contrib. (-TS)   =      -0.01117636 Ry
     internal energy E=F+TS    =   -1191.76683368 Ry

     The total energy is F=E-TS. E is the sum of the following terms:
     one-electron contribution =   -5831.83232797 Ry
     hartree contribution      =    2923.46904018 Ry
     xc contribution           =    -337.24978383 Ry
     ewald contribution        =    2053.84623793 Ry

     convergence has been achieved in  18 iterations

     negative rho (up, down):  8.130E-01 0.000E+00

     Forces acting on atoms (cartesian axes, Ry/au):

     atom    1 type  2   force =    -0.00201329    0.00000000    0.06771025
     atom    2 type  2   force =     0.00100665   -0.00174356    0.06771025
     atom    3 type  2   force =     0.00100665    0.00174356    0.06771025
     atom    4 type  2   force =     0.00000000    0.00000000   -0.01649859
     atom    5 type  2   force =     0.00000000    0.00000000   -0.07240407
     atom    6 type  2   force =     0.00000000    0.00000000   -0.07240407
     atom    7 type  1   force =    -0.08662375    0.00000000   -0.02408006
     atom    8 type  1   force =     0.08558551    0.00000000   -0.01805513
     atom    9 type  1   force =     0.04331187   -0.07501837   -0.02408006
     atom   10 type  1   force =    -0.04279275   -0.07411922   -0.01805513
     atom   11 type  1   force =     0.00000000    0.00000000    0.04229077
     atom   12 type  1   force =    -0.04279275    0.07411922   -0.01805513
     atom   13 type  1   force =     0.00000000    0.00000000    0.04229077
     atom   14 type  1   force =     0.04331187    0.07501837   -0.02408006
     The non-local contrib.  to forces
     atom    1 type  2   force =    -0.00673241    0.00000000   -0.24293334
     atom    2 type  2   force =     0.00336620   -0.00583044   -0.24293334
     atom    3 type  2   force =     0.00336620    0.00583044   -0.24293334
     atom    4 type  2   force =     0.00000000    0.00000000    0.32610015
     atom    5 type  2   force =     0.00000000    0.00000000    0.29921694
     atom    6 type  2   force =     0.00000000    0.00000000    0.29921694
     atom    7 type  1   force =     0.07941754    0.00000000   -0.14410994
     atom    8 type  1   force =    -0.07954200    0.00000000   -0.12615716
     atom    9 type  1   force =    -0.03970877    0.06877760   -0.14410994
     atom   10 type  1   force =     0.03977100    0.06888539   -0.12615716
     atom   11 type  1   force =     0.00000000    0.00000000    0.01894533
     atom   12 type  1   force =     0.03977100   -0.06888539   -0.12615716
     atom   13 type  1   force =     0.00000000    0.00000000    0.01894533
     atom   14 type  1   force =    -0.03970877   -0.06877760   -0.14410994
     The ionic contribution  to forces
     atom    1 type  2   force =    -0.02761996    0.00001353 -120.95442276
     atom    2 type  2   force =     0.01382170   -0.02391283 -120.95442276
     atom    3 type  2   force =     0.01379827    0.02389930 -120.95438124
     atom    4 type  2   force =    -0.00000000   -0.00000000   42.80368939
     atom    5 type  2   force =    -0.00010236    0.00005910   40.25483348
     atom    6 type  2   force =     0.00010236   -0.00005910   40.25483348
     atom    7 type  1   force =    -1.52822473    0.00001073   29.79007890
     atom    8 type  1   force =     1.52822472   -0.00001073   29.78831471
     atom    9 type  1   force =     0.76412165   -1.32347607   29.79007890
     atom   10 type  1   force =    -0.76410307   -1.32346534   29.78830646
     atom   11 type  1   force =    -0.00001932    0.00001115   30.40735303
     atom   12 type  1   force =    -0.76412165    1.32347607   29.78831471
     atom   13 type  1   force =     0.00001932   -0.00001115   30.40735303
     atom   14 type  1   force =     0.76410307    1.32346535   29.79007066
     The local contribution  to forces
     atom    1 type  2   force =     0.03363118    0.00000000  121.28815160
     atom    2 type  2   force =    -0.01681559    0.02912546  121.28815160
     atom    3 type  2   force =    -0.01681559   -0.02912546  121.28815160
     atom    4 type  2   force =     0.00000000   -0.00000000  -43.16818986
     atom    5 type  2   force =    -0.00025034    0.00014453  -40.64340107
     atom    6 type  2   force =     0.00025034   -0.00014453  -40.64340107
     atom    7 type  1   force =     1.35554798    0.00000000  -29.67387328
     atom    8 type  1   force =    -1.35641648   -0.00000000  -29.68338582
     atom    9 type  1   force =    -0.67777399    1.17393898  -29.67387328
     atom   10 type  1   force =     0.67820824    1.17469113  -29.68338582
     atom   11 type  1   force =    -0.00000211    0.00000122  -30.37908284
     atom   12 type  1   force =     0.67820824   -1.17469113  -29.68338582
     atom   13 type  1   force =     0.00000211   -0.00000122  -30.37908284
     atom   14 type  1   force =    -0.67777399   -1.17393898  -29.67387328
     The core correction contribution to forces
     atom    1 type  2   force =    -0.00130487   -0.00000000   -0.02316249
     atom    2 type  2   force =     0.00065244   -0.00113005   -0.02316249
     atom    3 type  2   force =     0.00065244    0.00113005   -0.02316249
     atom    4 type  2   force =    -0.00000000   -0.00000000    0.02179497
     atom    5 type  2   force =     0.00001293   -0.00000747    0.01697853
     atom    6 type  2   force =    -0.00001293    0.00000747    0.01697853
     atom    7 type  1   force =     0.00664898   -0.00000000    0.00397397
     atom    8 type  1   force =    -0.00669427    0.00000000    0.00332271
     atom    9 type  1   force =    -0.00332449    0.00575819    0.00397397
     atom   10 type  1   force =     0.00334713    0.00579741    0.00332271
     atom   11 type  1   force =    -0.00000062    0.00000036   -0.00478960
     atom   12 type  1   force =     0.00334713   -0.00579741    0.00332271
     atom   13 type  1   force =     0.00000062   -0.00000036   -0.00478960
     atom   14 type  1   force =    -0.00332449   -0.00575819    0.00397397
     The Hubbard contrib.    to forces
     atom    1 type  2   force =     0.00000000    0.00000000    0.00000000
     atom    2 type  2   force =     0.00000000    0.00000000    0.00000000
     atom    3 type  2   force =     0.00000000    0.00000000    0.00000000
     atom    4 type  2   force =     0.00000000    0.00000000    0.00000000
     atom    5 type  2   force =     0.00000000    0.00000000    0.00000000
     atom    6 type  2   force =     0.00000000    0.00000000    0.00000000
     atom    7 type  1   force =     0.00000000    0.00000000    0.00000000
     atom    8 type  1   force =     0.00000000    0.00000000    0.00000000
     atom    9 type  1   force =     0.00000000    0.00000000    0.00000000
     atom   10 type  1   force =     0.00000000    0.00000000    0.00000000
     atom   11 type  1   force =     0.00000000    0.00000000    0.00000000
     atom   12 type  1   force =     0.00000000    0.00000000    0.00000000
     atom   13 type  1   force =     0.00000000    0.00000000    0.00000000
     atom   14 type  1   force =     0.00000000    0.00000000    0.00000000
     The SCF correction term to forces
     atom    1 type  2   force =     0.00000000   -0.00000000    0.00000000
     atom    2 type  2   force =    -0.00000000    0.00000000    0.00000000
     atom    3 type  2   force =    -0.00000000   -0.00000000    0.00000000
     atom    4 type  2   force =    -0.00000000   -0.00000000    0.00010927
     atom    5 type  2   force =     0.00000001   -0.00000001   -0.00002944
     atom    6 type  2   force =    -0.00000001    0.00000001   -0.00002944
     atom    7 type  1   force =    -0.00001971   -0.00000000   -0.00014447
     atom    8 type  1   force =     0.00001972    0.00000000   -0.00014429
     atom    9 type  1   force =     0.00000985   -0.00001707   -0.00014447
     atom   10 type  1   force =    -0.00000986   -0.00001708   -0.00014429
     atom   11 type  1   force =     0.00000000   -0.00000000   -0.00013263
     atom   12 type  1   force =    -0.00000986    0.00001708   -0.00014429
     atom   13 type  1   force =    -0.00000000    0.00000000   -0.00013263
     atom   14 type  1   force =     0.00000985    0.00001707   -0.00014447

     Total force =     0.248067     Total SCF correction =     0.000420

     BFGS Geometry Optimization
     Energy error            =      0.0E+00 Ry
     Gradient error          =      8.7E-02 Ry/Bohr

     number of scf cycles    =   1
     number of bfgs steps    =   0

     energy             new  =   -1191.7780100395 Ry

     new trust radius        =       0.0899084151 bohr
     new conv_thr            =       0.0000010000 Ry


ATOMIC_POSITIONS (crystal)
Re            0.3333330000        0.0000000000        0.0000000000    0   0   0
Re            0.0000000000        0.3333330000        0.0000000000    0   0   0
Re            0.6666670000        0.6666670000        0.0000000000    0   0   0
Re            0.0000000000        0.0000000000        0.1245103586
Re            0.6666670000        0.3333330000        0.1228512080
Re            0.3333330000        0.6666670000        0.1228512080
B             0.3237464853        0.0000000000        0.2492853572
B             0.6761386142        0.0000000000        0.2494641639
B             0.0000000000        0.3237464853        0.2492853572
B             0.3238613858        0.3238613858        0.2494641639
B             0.6666670000        0.3333330000        0.2512550963
B            -0.0000000000        0.6761386142        0.2494641639
B             0.3333330000        0.6666670000        0.2512550963
B             0.6762535147        0.6762535147        0.2492853572



     Writing config-only to output data dir ../outdir/borophene.save/
     NEW-OLD atomic charge density approx. for the potential

     Check: negative core charge=   -0.000002

     negative rho (up, down):  8.150E-01 0.000E+00

     total cpu time spent up to now is      233.9 secs

     per-process dynamical memory:   227.5 Mb

     Self-consistent Calculation

     iteration #  1     ecut=    50.00 Ry     beta= 0.70
     Davidson diagonalization with overlap
     ethr =  1.00E-06,  avg # of iterations = 13.5

     negative rho (up, down):  8.138E-01 0.000E+00

     total cpu time spent up to now is      242.6 secs

     total energy              =   -1191.66275182 Ry
     estimated scf accuracy    <       0.18924875 Ry

     iteration #  2     ecut=    50.00 Ry     beta= 0.70
     Davidson diagonalization with overlap
     ethr =  1.66E-04,  avg # of iterations = 11.5

     negative rho (up, down):  8.139E-01 0.000E+00

     total cpu time spent up to now is      261.9 secs

     total energy              =   -1189.48379348 Ry
     estimated scf accuracy    <      66.17872071 Ry

     iteration #  3     ecut=    50.00 Ry     beta= 0.70
     Davidson diagonalization with overlap
     ethr =  1.66E-04,  avg # of iterations = 12.5

     negative rho (up, down):  8.152E-01 0.000E+00

     total cpu time spent up to now is      269.3 secs

     total energy              =   -1191.75292426 Ry
     estimated scf accuracy    <       0.35840440 Ry

     iteration #  4     ecut=    50.00 Ry     beta= 0.70
     Davidson diagonalization with overlap
     ethr =  1.66E-04,  avg # of iterations =  4.0

     negative rho (up, down):  8.154E-01 0.000E+00

     total cpu time spent up to now is      281.0 secs

     total energy              =   -1191.79944689 Ry
     estimated scf accuracy    <       0.09397123 Ry

     iteration #  5     ecut=    50.00 Ry     beta= 0.70
     Davidson diagonalization with overlap
     ethr =  8.24E-05,  avg # of iterations =  2.5

     negative rho (up, down):  8.155E-01 0.000E+00

     total cpu time spent up to now is      278.6 secs

     total energy              =   -1191.80671451 Ry
     estimated scf accuracy    <       0.01081715 Ry

     iteration #  6     ecut=    50.00 Ry     beta= 0.70
     Davidson diagonalization with overlap
     ethr =  9.49E-06,  avg # of iterations =  6.0

     negative rho (up, down):  8.158E-01 0.000E+00

     total cpu time spent up to now is      290.4 secs

     total energy              =   -1191.80760888 Ry
     estimated scf accuracy    <       0.00546086 Ry

     iteration #  7     ecut=    50.00 Ry     beta= 0.70
     Davidson diagonalization with overlap
     ethr =  4.79E-06,  avg # of iterations =  2.0

     negative rho (up, down):  8.159E-01 0.000E+00

     total cpu time spent up to now is      301.9 secs

     total energy              =   -1191.80805504 Ry
     estimated scf accuracy    <       0.00027746 Ry

     iteration #  8     ecut=    50.00 Ry     beta= 0.70
     Davidson diagonalization with overlap
     ethr =  2.43E-07,  avg # of iterations =  7.5

     negative rho (up, down):  8.160E-01 0.000E+00

     total cpu time spent up to now is      316.1 secs

     total energy              =   -1191.80810411 Ry
     estimated scf accuracy    <       0.00020179 Ry

     iteration #  9     ecut=    50.00 Ry     beta= 0.70
     Davidson diagonalization with overlap
     ethr =  1.77E-07,  avg # of iterations =  2.0

     negative rho (up, down):  8.161E-01 0.000E+00

     total cpu time spent up to now is      314.4 secs

     total energy              =   -1191.80811480 Ry
     estimated scf accuracy    <       0.00002034 Ry

     iteration # 10     ecut=    50.00 Ry     beta= 0.70
     Davidson diagonalization with overlap
     ethr =  1.78E-08,  avg # of iterations =  5.5

     negative rho (up, down):  8.161E-01 0.000E+00

     total cpu time spent up to now is      326.4 secs

     total energy              =   -1191.80811894 Ry
     estimated scf accuracy    <       0.00000453 Ry

     iteration # 11     ecut=    50.00 Ry     beta= 0.70
     Davidson diagonalization with overlap
     ethr =  3.97E-09,  avg # of iterations =  2.5

     negative rho (up, down):  8.161E-01 0.000E+00

     total cpu time spent up to now is      387.0 secs

     End of self-consistent calculation

          k = 0.0000 0.0000 0.0000 ( 14217 PWs)   bands (ev):

   -75.0899 -75.0090 -74.9939 -74.7230 -74.6435 -74.6434 -37.1810 -37.1621
   -37.1620 -37.1234 -37.1234 -36.9875 -36.9317 -36.6543 -36.6543 -36.5465
   -36.5405 -36.4748 -36.4748 -36.4183 -36.4176 -36.4176 -36.0482 -36.0482
   -11.8017  -7.2275  -7.1554  -7.1553  -5.0444  -5.0444  -4.5207  -3.6610
    -2.3915  -1.3325   0.7241   0.7242   1.1224   1.3602   1.3603   1.6302
     1.8348   1.8349   1.9679   1.9680   2.9727   2.9727   3.0607   3.4586
     3.4707   3.4769   3.4769   3.7760   3.7760   3.8938   3.9671   3.9671
     4.5465   5.5213   5.5213   5.6294   5.6295   6.4114   6.7680   6.7681
     6.8657   6.8657   7.7028   7.7029

          k = 0.0000-0.5774 0.0000 ( 14236 PWs)   bands (ev):

   -75.0479 -75.0375 -75.0078 -74.6790 -74.6789 -74.6524 -37.4118 -37.1081
   -37.0946 -37.0712 -37.0016 -36.9660 -36.7153 -36.6988 -36.6931 -36.6799
   -36.5251 -36.5211 -36.4229 -36.3871 -36.3821 -36.2517 -36.2210 -36.2191
   -10.8267 -10.0591  -7.5886  -6.6260  -3.5777  -3.3296  -2.4119  -2.4076
    -1.6735  -0.8977  -0.7561  -0.5046  -0.3721  -0.2819   0.2198   0.6292
     1.0676   1.1012   1.4758   1.4865   1.6935   2.3137   2.3215   2.4771
     2.7186   3.3055   3.5304   3.5868   3.9903   4.2792   4.5501   4.6523
     5.7414   5.7817   5.9411   6.3002   6.4456   7.2887   7.4229   7.5432
     7.5514   7.6284   7.6939   8.5703

     the Fermi energy is     5.6240 ev

!    total energy              =   -1191.80811902 Ry
     estimated scf accuracy    <       0.00000035 Ry
     smearing contrib. (-TS)   =      -0.01310958 Ry
     internal energy E=F+TS    =   -1191.79500944 Ry

     The total energy is F=E-TS. E is the sum of the following terms:
     one-electron contribution =   -5846.19134297 Ry
     hartree contribution      =    2930.64509111 Ry
     xc contribution           =    -337.18360006 Ry
     ewald contribution        =    2060.93484248 Ry

     convergence has been achieved in  11 iterations

     negative rho (up, down):  8.161E-01 0.000E+00

     Forces acting on atoms (cartesian axes, Ry/au):

     atom    1 type  2   force =     0.00236578    0.00000000    0.05716092
     atom    2 type  2   force =    -0.00118289    0.00204883    0.05716092
     atom    3 type  2   force =    -0.00118289   -0.00204883    0.05716092
     atom    4 type  2   force =    -0.00000000    0.00000000    0.00457740
     atom    5 type  2   force =     0.00000000   -0.00000000   -0.05409982
     atom    6 type  2   force =     0.00000000    0.00000000   -0.05409982
     atom    7 type  1   force =     0.02474801    0.00000000   -0.02590174
     atom    8 type  1   force =    -0.02562603   -0.00000000   -0.01762013
     atom    9 type  1   force =    -0.01237400    0.02143240   -0.02590174
     atom   10 type  1   force =     0.01281302    0.02219280   -0.01762013
     atom   11 type  1   force =     0.00000000    0.00000000    0.03135255
     atom   12 type  1   force =     0.01281302   -0.02219280   -0.01762013
     atom   13 type  1   force =     0.00000000    0.00000000    0.03135255
     atom   14 type  1   force =    -0.01237400   -0.02143240   -0.02590174
     The non-local contrib.  to forces
     atom    1 type  2   force =    -0.00498160   -0.00000000   -0.24755793
     atom    2 type  2   force =     0.00249080   -0.00431419   -0.24755793
     atom    3 type  2   force =     0.00249080    0.00431419   -0.24755793
     atom    4 type  2   force =     0.00000000    0.00000000    0.33969709
     atom    5 type  2   force =     0.00000000    0.00000000    0.30699805
     atom    6 type  2   force =     0.00000000    0.00000000    0.30699805
     atom    7 type  1   force =     0.19934597    0.00000000   -0.13816986
     atom    8 type  1   force =    -0.19760286    0.00000000   -0.11378197
     atom    9 type  1   force =    -0.09967298    0.17263867   -0.13816986
     atom   10 type  1   force =     0.09880143    0.17112910   -0.11378197
     atom   11 type  1   force =     0.00000000   -0.00000000   -0.00203753
     atom   12 type  1   force =     0.09880143   -0.17112910   -0.11378197
     atom   13 type  1   force =     0.00000000    0.00000000   -0.00203753
     atom   14 type  1   force =    -0.09967298   -0.17263867   -0.13816986
     The ionic contribution  to forces
     atom    1 type  2   force =    -0.19644152    0.00001436 -121.28002141
     atom    2 type  2   force =     0.09823320   -0.17011617 -121.28002141
     atom    3 type  2   force =     0.09820833    0.17010181 -121.27997764
     atom    4 type  2   force =    -0.00000000   -0.00000000   43.87431996
     atom    5 type  2   force =    -0.00010267    0.00005928   40.50965217
     atom    6 type  2   force =     0.00010267   -0.00005928   40.50965217
     atom    7 type  1   force =    -1.02326264    0.00001056   29.66309596
     atom    8 type  1   force =     1.02299375   -0.00001055   29.68808520
     atom    9 type  1   force =     0.51164046   -0.88616616   29.66309596
     atom   10 type  1   force =    -0.51148774   -0.88592276   29.68807806
     atom   11 type  1   force =    -0.00001872    0.00001081   30.44643347
     atom   12 type  1   force =    -0.51150601    0.88593330   29.68808520
     atom   13 type  1   force =     0.00001872   -0.00001081   30.44643347
     atom   14 type  1   force =     0.51162218    0.88615561   29.66308885
     The local contribution  to forces
     atom    1 type  2   force =     0.20437577   -0.00000000  121.60992772
     atom    2 type  2   force =    -0.10218789    0.17699461  121.60992772
     atom    3 type  2   force =    -0.10218789   -0.17699461  121.60992772
     atom    4 type  2   force =     0.00000000   -0.00000000  -44.23239666
     atom    5 type  2   force =    -0.00024961    0.00014411  -40.88761215
     atom    6 type  2   force =     0.00024961   -0.00014411  -40.88761215
     atom    7 type  1   force =     0.85070368   -0.00000000  -29.55510218
     atom    8 type  1   force =    -0.85296702    0.00000000  -29.59517561
     atom    9 type  1   force =    -0.42535184    0.73673100  -29.55510218
     atom   10 type  1   force =     0.42648351    0.73869111  -29.59517561
     atom   11 type  1   force =    -0.00000167    0.00000096  -30.40899871
     atom   12 type  1   force =     0.42648351   -0.73869111  -29.59517561
     atom   13 type  1   force =     0.00000167   -0.00000096  -30.40899871
     atom   14 type  1   force =    -0.42535184   -0.73673100  -29.55510218
     The core correction contribution to forces
     atom    1 type  2   force =    -0.00064751   -0.00000000   -0.02381436
     atom    2 type  2   force =     0.00032375   -0.00056076   -0.02381436
     atom    3 type  2   force =     0.00032375    0.00056076   -0.02381436
     atom    4 type  2   force =     0.00000000    0.00000000    0.02319449
     atom    5 type  2   force =     0.00001293   -0.00000746    0.01786416
     atom    6 type  2   force =    -0.00001293    0.00000746    0.01786416
     atom    7 type  1   force =    -0.00186081    0.00000000    0.00420572
     atom    8 type  1   force =     0.00177320    0.00000000    0.00318339
     atom    9 type  1   force =     0.00093041   -0.00161151    0.00420572
     atom   10 type  1   force =    -0.00088660   -0.00153563    0.00318339
     atom   11 type  1   force =    -0.00000058    0.00000033   -0.00414643
     atom   12 type  1   force =    -0.00088660    0.00153563    0.00318339
     atom   13 type  1   force =     0.00000058   -0.00000033   -0.00414643
     atom   14 type  1   force =     0.00093041    0.00161151    0.00420572
     The Hubbard contrib.    to forces
     atom    1 type  2   force =     0.00000000    0.00000000    0.00000000
     atom    2 type  2   force =     0.00000000    0.00000000    0.00000000
     atom    3 type  2   force =     0.00000000    0.00000000    0.00000000
     atom    4 type  2   force =     0.00000000    0.00000000    0.00000000
     atom    5 type  2   force =     0.00000000    0.00000000    0.00000000
     atom    6 type  2   force =     0.00000000    0.00000000    0.00000000
     atom    7 type  1   force =     0.00000000    0.00000000    0.00000000
     atom    8 type  1   force =     0.00000000    0.00000000    0.00000000
     atom    9 type  1   force =     0.00000000    0.00000000    0.00000000
     atom   10 type  1   force =     0.00000000    0.00000000    0.00000000
     atom   11 type  1   force =     0.00000000    0.00000000    0.00000000
     atom   12 type  1   force =     0.00000000    0.00000000    0.00000000
     atom   13 type  1   force =     0.00000000    0.00000000    0.00000000
     atom   14 type  1   force =     0.00000000    0.00000000    0.00000000
     The SCF correction term to forces
     atom    1 type  2   force =     0.00000000   -0.00000000   -0.00000000
     atom    2 type  2   force =    -0.00000000    0.00000000   -0.00000000
     atom    3 type  2   force =    -0.00000000   -0.00000000   -0.00000000
     atom    4 type  2   force =     0.00000000    0.00000000   -0.00010431
     atom    5 type  2   force =     0.00000000   -0.00000000   -0.00086886
     atom    6 type  2   force =    -0.00000000    0.00000000   -0.00086886
     atom    7 type  1   force =    -0.00018428   -0.00000000    0.00020415
     atom    8 type  1   force =     0.00018299   -0.00000000    0.00020441
     atom    9 type  1   force =     0.00009214   -0.00015959    0.00020415
     atom   10 type  1   force =    -0.00009149   -0.00015847    0.00020441
     atom   11 type  1   force =     0.00000000   -0.00000000    0.00023492
     atom   12 type  1   force =    -0.00009149    0.00015847    0.00020441
     atom   13 type  1   force =    -0.00000000   -0.00000000    0.00023492
     atom   14 type  1   force =     0.00009214    0.00015959    0.00020415

     Total force =     0.120798     Total SCF correction =     0.001444
     Energy error            =      3.0E-02 Ry
     Gradient error          =      5.4E-02 Ry/Bohr

     number of scf cycles    =   2
     number of bfgs steps    =   1

     energy             old  =   -1191.7780100395 Ry
     energy             new  =   -1191.8081190219 Ry

     CASE: energy            _new < energy            _old

     new trust radius        =       0.0715925737 bohr
     new conv_thr            =       0.0000003011 Ry


ATOMIC_POSITIONS (crystal)
Re            0.3333330000        0.0000000000        0.0000000000    0   0   0
Re            0.0000000000        0.3333330000        0.0000000000    0   0   0
Re            0.6666670000        0.6666670000        0.0000000000    0   0   0
Re           -0.0000000000        0.0000000000        0.1245297500
Re            0.6666670000        0.3333330000        0.1207264994
Re            0.3333330000        0.6666670000        0.1207264994
B             0.3242055560        0.0000000000        0.2483431324
B             0.6755545724       -0.0000000000        0.2488113302
B             0.0000000000        0.3242055560        0.2483431324
B             0.3244454276        0.3244454276        0.2488113302
B             0.6666670000        0.3333330000        0.2524887734
B            -0.0000000000        0.6755545724        0.2488113302
B             0.3333330000        0.6666670000        0.2524887734
B             0.6757944440        0.6757944440        0.2483431324



     Writing config-only to output data dir ../outdir/borophene.save/
     NEW-OLD atomic charge density approx. for the potential

     Check: negative core charge=   -0.000002

     negative rho (up, down):  8.149E-01 0.000E+00

     total cpu time spent up to now is      392.8 secs

     per-process dynamical memory:   227.5 Mb

     Self-consistent Calculation

     iteration #  1     ecut=    50.00 Ry     beta= 0.70
     Davidson diagonalization with overlap
     ethr =  1.00E-06,  avg # of iterations =  8.0

     negative rho (up, down):  8.146E-01 0.000E+00

     total cpu time spent up to now is      404.3 secs

     total energy              =   -1191.73770825 Ry
     estimated scf accuracy    <       0.09993888 Ry

     iteration #  2     ecut=    50.00 Ry     beta= 0.70
     Davidson diagonalization with overlap
     ethr =  8.77E-05,  avg # of iterations = 12.0

     negative rho (up, down):  8.148E-01 0.000E+00

     total cpu time spent up to now is      424.1 secs

     total energy              =   -1190.46978089 Ry
     estimated scf accuracy    <      36.67093078 Ry

     iteration #  3     ecut=    50.00 Ry     beta= 0.70
     Davidson diagonalization with overlap
     ethr =  8.77E-05,  avg # of iterations = 13.0

     negative rho (up, down):  8.153E-01 0.000E+00

     total cpu time spent up to now is      433.9 secs

     total energy              =   -1191.81223955 Ry
     estimated scf accuracy    <       0.07778609 Ry

     iteration #  4     ecut=    50.00 Ry     beta= 0.70
     Davidson diagonalization with overlap
     ethr =  6.82E-05,  avg # of iterations =  2.5

     negative rho (up, down):  8.155E-01 0.000E+00

     total cpu time spent up to now is      445.7 secs

     total energy              =   -1191.82053727 Ry
     estimated scf accuracy    <       0.00393928 Ry

     iteration #  5     ecut=    50.00 Ry     beta= 0.70
     Davidson diagonalization with overlap
     c_bands:  2 eigenvalues not converged
     ethr =  3.46E-06,  avg # of iterations = 13.0

     negative rho (up, down):  8.156E-01 0.000E+00

     total cpu time spent up to now is      451.1 secs

     total energy              =   -1191.82095878 Ry
     estimated scf accuracy    <       0.00335004 Ry

     iteration #  6     ecut=    50.00 Ry     beta= 0.70
     Davidson diagonalization with overlap
     ethr =  2.94E-06,  avg # of iterations =  6.0

     negative rho (up, down):  8.157E-01 0.000E+00

     total cpu time spent up to now is      462.6 secs

     total energy              =   -1191.82132110 Ry
     estimated scf accuracy    <       0.00085290 Ry

     iteration #  7     ecut=    50.00 Ry     beta= 0.70
     Davidson diagonalization with overlap
     ethr =  7.48E-07,  avg # of iterations =  2.0

     negative rho (up, down):  8.158E-01 0.000E+00

     total cpu time spent up to now is      473.9 secs

     total energy              =   -1191.82136668 Ry
     estimated scf accuracy    <       0.00007044 Ry

     iteration #  8     ecut=    50.00 Ry     beta= 0.70
     Davidson diagonalization with overlap
     ethr =  6.18E-08,  avg # of iterations =  5.5

     negative rho (up, down):  8.158E-01 0.000E+00

     total cpu time spent up to now is      474.5 secs

     total energy              =   -1191.82138045 Ry
     estimated scf accuracy    <       0.00002713 Ry

     iteration #  9     ecut=    50.00 Ry     beta= 0.70
     Davidson diagonalization with overlap
     ethr =  2.38E-08,  avg # of iterations =  2.0

     negative rho (up, down):  8.159E-01 0.000E+00

     total cpu time spent up to now is      486.0 secs

     total energy              =   -1191.82138029 Ry
     estimated scf accuracy    <       0.00001338 Ry

     iteration # 10     ecut=    50.00 Ry     beta= 0.70
     Davidson diagonalization with overlap
     ethr =  1.17E-08,  avg # of iterations =  2.0

     negative rho (up, down):  8.159E-01 0.000E+00

     total cpu time spent up to now is      498.2 secs

     total energy              =   -1191.82138103 Ry
     estimated scf accuracy    <       0.00000101 Ry

     iteration # 11     ecut=    50.00 Ry     beta= 0.70
     Davidson diagonalization with overlap
     ethr =  8.84E-10,  avg # of iterations =  5.5

     negative rho (up, down):  8.159E-01 0.000E+00

     total cpu time spent up to now is      560.5 secs

     total energy              =   -1191.82138126 Ry
     estimated scf accuracy    <       0.00000054 Ry

     iteration # 12     ecut=    50.00 Ry     beta= 0.70
     Davidson diagonalization with overlap
     ethr =  4.76E-10,  avg # of iterations =  2.0

     negative rho (up, down):  8.159E-01 0.000E+00

     total cpu time spent up to now is      573.8 secs

     End of self-consistent calculation

          k = 0.0000 0.0000 0.0000 ( 14217 PWs)   bands (ev):

   -75.0946 -75.0186 -74.9796 -74.7250 -74.6461 -74.6460 -37.2075 -37.1802
   -37.1802 -37.1241 -37.1241 -37.0177 -36.9264 -36.6591 -36.6590 -36.5350
   -36.5304 -36.4794 -36.4794 -36.4098 -36.4097 -36.3996 -36.0553 -36.0553
   -11.8046  -7.2389  -7.1452  -7.1452  -5.0311  -5.0310  -4.5379  -3.6571
    -2.4149  -1.3560   0.6406   0.6407   1.1132   1.3048   1.3049   1.6112
     1.7776   1.7777   1.9775   1.9776   2.9682   2.9682   3.1378   3.4348
     3.4636   3.4643   3.4643   3.7284   3.7285   3.9235   3.9235   3.9708
     4.5761   5.5021   5.5021   5.7426   5.7427   6.5050   6.7750   6.7750
     6.8527   6.8527   7.6789   7.7847

          k = 0.0000-0.5774 0.0000 ( 14236 PWs)   bands (ev):

   -75.0579 -75.0424 -74.9929 -74.6814 -74.6810 -74.6549 -37.4217 -37.1432
   -37.1193 -37.0870 -37.0082 -36.9534 -36.7100 -36.7043 -36.7029 -36.6786
   -36.5283 -36.5170 -36.4147 -36.3697 -36.3695 -36.2578 -36.2281 -36.2226
   -10.8311 -10.0604  -7.5762  -6.6221  -3.5665  -3.3144  -2.4374  -2.4031
    -1.6510  -0.9451  -0.7834  -0.5553  -0.3978  -0.3094   0.1918   0.6292
     1.0366   1.0596   1.4004   1.4655   1.7018   2.2771   2.2839   2.4944
     2.7469   3.3444   3.5402   3.5755   3.9703   4.2179   4.4869   4.6277
     5.7420   5.7834   5.9029   6.2990   6.4566   7.2765   7.4479   7.5447
     7.5830   7.6766   7.7331   8.6097

     the Fermi energy is     5.6423 ev

!    total energy              =   -1191.82138129 Ry
     estimated scf accuracy    <       0.00000003 Ry
     smearing contrib. (-TS)   =      -0.01274460 Ry
     internal energy E=F+TS    =   -1191.80863669 Ry

     The total energy is F=E-TS. E is the sum of the following terms:
     one-electron contribution =   -5862.17303759 Ry
     hartree contribution      =    2938.59510421 Ry
     xc contribution           =    -337.19644869 Ry
     ewald contribution        =    2068.96574538 Ry

     convergence has been achieved in  12 iterations

     negative rho (up, down):  8.159E-01 0.000E+00

     Forces acting on atoms (cartesian axes, Ry/au):

     atom    1 type  2   force =     0.00432627    0.00000000    0.04579272
     atom    2 type  2   force =    -0.00216313    0.00374666    0.04579272
     atom    3 type  2   force =    -0.00216313   -0.00374666    0.04579272
     atom    4 type  2   force =     0.00000000   -0.00000000    0.01689911
     atom    5 type  2   force =     0.00000000   -0.00000000   -0.03376676
     atom    6 type  2   force =     0.00000000   -0.00000000   -0.03376676
     atom    7 type  1   force =     0.01920755    0.00000000   -0.02928089
     atom    8 type  1   force =    -0.01947505    0.00000000   -0.01869297
     atom    9 type  1   force =    -0.00960377    0.01663423   -0.02928089
     atom   10 type  1   force =     0.00973752    0.01686588   -0.01869297
     atom   11 type  1   force =     0.00000000    0.00000000    0.02858892
     atom   12 type  1   force =     0.00973752   -0.01686588   -0.01869297
     atom   13 type  1   force =     0.00000000    0.00000000    0.02858892
     atom   14 type  1   force =    -0.00960377   -0.01663423   -0.02928089
     The non-local contrib.  to forces
     atom    1 type  2   force =    -0.00452615   -0.00000000   -0.25016005
     atom    2 type  2   force =     0.00226307   -0.00391976   -0.25016005
     atom    3 type  2   force =     0.00226307    0.00391976   -0.25016005
     atom    4 type  2   force =     0.00000000    0.00000000    0.34000150
     atom    5 type  2   force =     0.00000000   -0.00000000    0.32611244
     atom    6 type  2   force =     0.00000000    0.00000000    0.32611244
     atom    7 type  1   force =     0.18990679   -0.00000000   -0.13059386
     atom    8 type  1   force =    -0.18728992    0.00000000   -0.09919143
     atom    9 type  1   force =    -0.09495340    0.16446411   -0.13059386
     atom   10 type  1   force =     0.09364496    0.16219783   -0.09919143
     atom   11 type  1   force =     0.00000000    0.00000000   -0.02769235
     atom   12 type  1   force =     0.09364496   -0.16219783   -0.09919143
     atom   13 type  1   force =     0.00000000    0.00000000   -0.02769235
     atom   14 type  1   force =    -0.09495340   -0.16446411   -0.13059386
     The ionic contribution  to forces
     atom    1 type  2   force =    -0.43360626    0.00001523 -121.58000487
     atom    2 type  2   force =     0.21681632   -0.37550642 -121.58000487
     atom    3 type  2   force =     0.21678994    0.37549119 -121.57995876
     atom    4 type  2   force =    -0.00000000   -0.00000000   45.51337579
     atom    5 type  2   force =    -0.00010271    0.00005930   40.36207822
     atom    6 type  2   force =     0.00010271   -0.00005930   40.36207822
     atom    7 type  1   force =    -1.00030103    0.00001044   29.54052276
     atom    8 type  1   force =     1.00128558   -0.00001042   29.60841749
     atom    9 type  1   force =     0.50015956   -0.86628088   29.54052276
     atom   10 type  1   force =    -0.50063377   -0.86712312   29.60841110
     atom   11 type  1   force =    -0.00001849    0.00001068   30.52781413
     atom   12 type  1   force =    -0.50065181    0.86713354   29.60841749
     atom   13 type  1   force =     0.00001849   -0.00001068   30.52781413
     atom   14 type  1   force =     0.50014147    0.86627044   29.54051641
     The local contribution  to forces
     atom    1 type  2   force =     0.44279849    0.00000000  121.89959851
     atom    2 type  2   force =    -0.22139924    0.38347474  121.89959851
     atom    3 type  2   force =    -0.22139924   -0.38347474  121.89959851
     atom    4 type  2   force =     0.00000000   -0.00000000  -45.86048024
     atom    5 type  2   force =    -0.00024915    0.00014385  -40.74229433
     atom    6 type  2   force =     0.00024915   -0.00014385  -40.74229433
     atom    7 type  1   force =     0.83095185   -0.00000000  -29.44367429
     atom    8 type  1   force =    -0.83471434    0.00000000  -29.53084622
     atom    9 type  1   force =    -0.41547593    0.71962541  -29.44367429
     atom   10 type  1   force =     0.41735717    0.72288383  -29.53084622
     atom   11 type  1   force =    -0.00000142    0.00000082  -30.46766157
     atom   12 type  1   force =     0.41735717   -0.72288383  -29.53084622
     atom   13 type  1   force =     0.00000142   -0.00000082  -30.46766157
     atom   14 type  1   force =    -0.41547593   -0.71962541  -29.44367429
     The core correction contribution to forces
     atom    1 type  2   force =    -0.00028602    0.00000000   -0.02394123
     atom    2 type  2   force =     0.00014301   -0.00024770   -0.02394123
     atom    3 type  2   force =     0.00014301    0.00024770   -0.02394123
     atom    4 type  2   force =    -0.00000000   -0.00000000    0.02346101
     atom    5 type  2   force =     0.00001293   -0.00000746    0.01970745
     atom    6 type  2   force =    -0.00001293    0.00000746    0.01970745
     atom    7 type  1   force =    -0.00135343   -0.00000000    0.00444097
     atom    8 type  1   force =     0.00124705    0.00000000    0.00290373
     atom    9 type  1   force =     0.00067672   -0.00117211    0.00444097
     atom   10 type  1   force =    -0.00062353   -0.00107998    0.00290373
     atom   11 type  1   force =    -0.00000057    0.00000033   -0.00389133
     atom   12 type  1   force =    -0.00062353    0.00107998    0.00290373
     atom   13 type  1   force =     0.00000057   -0.00000033   -0.00389133
     atom   14 type  1   force =     0.00067672    0.00117211    0.00444097
     The Hubbard contrib.    to forces
     atom    1 type  2   force =     0.00000000    0.00000000    0.00000000
     atom    2 type  2   force =     0.00000000    0.00000000    0.00000000
     atom    3 type  2   force =     0.00000000    0.00000000    0.00000000
     atom    4 type  2   force =     0.00000000    0.00000000    0.00000000
     atom    5 type  2   force =     0.00000000    0.00000000    0.00000000
     atom    6 type  2   force =     0.00000000    0.00000000    0.00000000
     atom    7 type  1   force =     0.00000000    0.00000000    0.00000000
     atom    8 type  1   force =     0.00000000    0.00000000    0.00000000
     atom    9 type  1   force =     0.00000000    0.00000000    0.00000000
     atom   10 type  1   force =     0.00000000    0.00000000    0.00000000
     atom   11 type  1   force =     0.00000000    0.00000000    0.00000000
     atom   12 type  1   force =     0.00000000    0.00000000    0.00000000
     atom   13 type  1   force =     0.00000000    0.00000000    0.00000000
     atom   14 type  1   force =     0.00000000    0.00000000    0.00000000
     The SCF correction term to forces
     atom    1 type  2   force =    -0.00000000    0.00000000    0.00000000
     atom    2 type  2   force =     0.00000000   -0.00000000    0.00000000
     atom    3 type  2   force =     0.00000000    0.00000000    0.00000000
     atom    4 type  2   force =    -0.00000000   -0.00000000    0.00055691
     atom    5 type  2   force =     0.00000000    0.00000000    0.00064532
     atom    6 type  2   force =     0.00000000    0.00000000    0.00064532
     atom    7 type  1   force =    -0.00000266    0.00000000    0.00004151
     atom    8 type  1   force =     0.00000260   -0.00000000    0.00004146
     atom    9 type  1   force =     0.00000133   -0.00000230    0.00004151
     atom   10 type  1   force =    -0.00000130   -0.00000225    0.00004146
     atom   11 type  1   force =    -0.00000000   -0.00000000    0.00003591
     atom   12 type  1   force =    -0.00000130    0.00000225    0.00004146
     atom   13 type  1   force =    -0.00000000   -0.00000000    0.00003591
     atom   14 type  1   force =     0.00000133    0.00000231    0.00004151

     Total force =     0.100328     Total SCF correction =     0.001075
     Energy error            =      1.3E-02 Ry
     Gradient error          =      3.4E-02 Ry/Bohr

     number of scf cycles    =   3
     number of bfgs steps    =   2

     energy             old  =   -1191.8081190219 Ry
     energy             new  =   -1191.8213812911 Ry

     CASE: energy            _new < energy            _old


     WARNING: bfgs curvature condition failed, Theta= 0.997
     new trust radius        =       0.0787518311 bohr
     new conv_thr            =       0.0000001326 Ry


ATOMIC_POSITIONS (crystal)
Re            0.3333330000        0.0000000000        0.0000000000    0   0   0
Re            0.0000000000        0.3333330000        0.0000000000    0   0   0
Re            0.6666670000        0.6666670000        0.0000000000    0   0   0
Re           -0.0000000000        0.0000000000        0.1250348073
Re            0.6666670000        0.3333330000        0.1183893200
Re            0.3333330000        0.6666670000        0.1183893200
B             0.3246978122        0.0000000000        0.2468425920
B             0.6749634522       -0.0000000000        0.2478200870
B             0.0000000000        0.3246978122        0.2468425920
B             0.3250365478        0.3250365478        0.2478200870
B             0.6666670000        0.3333330000        0.2541739276
B            -0.0000000000        0.6749634522        0.2478200870
B             0.3333330000        0.6666670000        0.2541739276
B             0.6753021878        0.6753021878        0.2468425920



     Writing config-only to output data dir ../outdir/borophene.save/
     NEW-OLD atomic charge density approx. for the potential

     Check: negative core charge=   -0.000002

     negative rho (up, down):  8.121E-01 0.000E+00

     total cpu time spent up to now is      582.0 secs

     per-process dynamical memory:   227.5 Mb

     Self-consistent Calculation

     iteration #  1     ecut=    50.00 Ry     beta= 0.70
     Davidson diagonalization with overlap
     c_bands:  1 eigenvalues not converged
     ethr =  1.00E-06,  avg # of iterations = 14.5

     negative rho (up, down):  8.121E-01 0.000E+00

     total cpu time spent up to now is      593.8 secs

     total energy              =   -1191.78429580 Ry
     estimated scf accuracy    <       0.06319730 Ry

     iteration #  2     ecut=    50.00 Ry     beta= 0.70
     Davidson diagonalization with overlap
     ethr =  5.54E-05,  avg # of iterations = 12.5

     negative rho (up, down):  8.127E-01 0.000E+00

     total cpu time spent up to now is      602.3 secs

     total energy              =   -1191.22597969 Ry
     estimated scf accuracy    <      15.40252930 Ry

     iteration #  3     ecut=    50.00 Ry     beta= 0.70
     Davidson diagonalization with overlap
     ethr =  5.54E-05,  avg # of iterations = 12.0

     negative rho (up, down):  8.131E-01 0.000E+00

     total cpu time spent up to now is      632.2 secs

     total energy              =   -1191.83178772 Ry
     estimated scf accuracy    <       0.01508835 Ry

     iteration #  4     ecut=    50.00 Ry     beta= 0.70
     Davidson diagonalization with overlap
     ethr =  1.32E-05,  avg # of iterations =  6.5

     negative rho (up, down):  8.131E-01 0.000E+00

     total cpu time spent up to now is      635.6 secs

     total energy              =   -1191.83397202 Ry
     estimated scf accuracy    <       0.01229355 Ry

     iteration #  5     ecut=    50.00 Ry     beta= 0.70
     Davidson diagonalization with overlap
     ethr =  1.08E-05,  avg # of iterations =  2.5

     negative rho (up, down):  8.132E-01 0.000E+00

     total cpu time spent up to now is      647.8 secs

     total energy              =   -1191.83487091 Ry
     estimated scf accuracy    <       0.00178698 Ry

     iteration #  6     ecut=    50.00 Ry     beta= 0.70
     Davidson diagonalization with overlap
     ethr =  1.57E-06,  avg # of iterations =  4.5

     negative rho (up, down):  8.132E-01 0.000E+00

     total cpu time spent up to now is      660.8 secs

     total energy              =   -1191.83515786 Ry
     estimated scf accuracy    <       0.00050019 Ry

     iteration #  7     ecut=    50.00 Ry     beta= 0.70
     Davidson diagonalization with overlap
     ethr =  4.39E-07,  avg # of iterations =  2.0

     negative rho (up, down):  8.133E-01 0.000E+00

     total cpu time spent up to now is      661.5 secs

     total energy              =   -1191.83523863 Ry
     estimated scf accuracy    <       0.00002884 Ry

     iteration #  8     ecut=    50.00 Ry     beta= 0.70
     Davidson diagonalization with overlap
     ethr =  2.53E-08,  avg # of iterations =  5.5

     negative rho (up, down):  8.133E-01 0.000E+00

     total cpu time spent up to now is      674.2 secs

     total energy              =   -1191.83524739 Ry
     estimated scf accuracy    <       0.00000913 Ry

     iteration #  9     ecut=    50.00 Ry     beta= 0.70
     Davidson diagonalization with overlap
     ethr =  8.01E-09,  avg # of iterations =  2.0

     negative rho (up, down):  8.133E-01 0.000E+00

     total cpu time spent up to now is      686.4 secs

     total energy              =   -1191.83524814 Ry
     estimated scf accuracy    <       0.00000113 Ry

     iteration # 10     ecut=    50.00 Ry     beta= 0.70
     Davidson diagonalization with overlap
     ethr =  9.95E-10,  avg # of iterations =  8.0

     negative rho (up, down):  8.133E-01 0.000E+00

     total cpu time spent up to now is      749.5 secs

     End of self-consistent calculation

          k = 0.0000 0.0000 0.0000 ( 14217 PWs)   bands (ev):

   -75.1005 -75.0256 -74.9725 -74.7311 -74.6531 -74.6531 -37.2466 -37.2020
   -37.2019 -37.1266 -37.1265 -37.0582 -36.9236 -36.6671 -36.6671 -36.5358
   -36.5136 -36.4889 -36.4889 -36.4035 -36.4034 -36.3853 -36.0666 -36.0666
   -11.7849  -7.2264  -7.0968  -7.0967  -4.9929  -4.9928  -4.5554  -3.6386
    -2.4311  -1.3675   0.5470   0.5471   1.1030   1.2367   1.2368   1.5972
     1.6993   1.6994   1.9853   1.9854   2.9678   2.9678   3.2083   3.4023
     3.4429   3.4429   3.4458   3.6779   3.6779   3.8977   3.8977   4.0974
     4.5979   5.4583   5.4583   5.8830   5.8831   6.6184   6.8171   6.8172
     6.8554   6.8555   7.6695   7.7215

          k = 0.0000-0.5774 0.0000 ( 14236 PWs)   bands (ev):

   -75.0658 -75.0488 -74.9844 -74.6883 -74.6875 -74.6618 -37.4338 -37.1881
   -37.1568 -37.1075 -37.0177 -36.9414 -36.7282 -36.7095 -36.7051 -36.6759
   -36.5355 -36.5142 -36.4097 -36.3644 -36.3528 -36.2681 -36.2388 -36.2287
   -10.8111 -10.0373  -7.5307  -6.6009  -3.5121  -3.2570  -2.4650  -2.3723
    -1.6003  -1.0007  -0.8110  -0.6142  -0.4213  -0.3363   0.1669   0.6309
     0.9627   1.0573   1.3155   1.4466   1.7099   2.2312   2.2396   2.5146
     2.7662   3.3962   3.5577   3.5599   3.9603   4.1718   4.4205   4.6005
     5.7327   5.7725   5.8459   6.2964   6.4767   7.2754   7.4441   7.5345
     7.6188   7.7415   7.7637   8.6532

     the Fermi energy is     5.6360 ev

!    total energy              =   -1191.83524829 Ry
     estimated scf accuracy    <       0.00000006 Ry
     smearing contrib. (-TS)   =      -0.01083306 Ry
     internal energy E=F+TS    =   -1191.82441524 Ry

     The total energy is F=E-TS. E is the sum of the following terms:
     one-electron contribution =   -5881.15693992 Ry
     hartree contribution      =    2948.06372683 Ry
     xc contribution           =    -337.21649508 Ry
     ewald contribution        =    2078.48529294 Ry

     convergence has been achieved in  10 iterations

     negative rho (up, down):  8.133E-01 0.000E+00

     Forces acting on atoms (cartesian axes, Ry/au):

     atom    1 type  2   force =     0.00429910    0.00000000    0.03206535
     atom    2 type  2   force =    -0.00214955    0.00372313    0.03206535
     atom    3 type  2   force =    -0.00214955   -0.00372313    0.03206535
     atom    4 type  2   force =    -0.00000000    0.00000000    0.02300101
     atom    5 type  2   force =     0.00000000    0.00000000   -0.00634409
     atom    6 type  2   force =     0.00000000    0.00000000   -0.00634409
     atom    7 type  1   force =     0.01366009    0.00000000   -0.03284944
     atom    8 type  1   force =    -0.01379405    0.00000000   -0.01977306
     atom    9 type  1   force =    -0.00683004    0.01182998   -0.03284944
     atom   10 type  1   force =     0.00689702    0.01194600   -0.01977306
     atom   11 type  1   force =     0.00000000    0.00000000    0.02567931
     atom   12 type  1   force =     0.00689702   -0.01194600   -0.01977306
     atom   13 type  1   force =     0.00000000    0.00000000    0.02567931
     atom   14 type  1   force =    -0.00683004   -0.01182998   -0.03284944
     The non-local contrib.  to forces
     atom    1 type  2   force =    -0.00524244    0.00000000   -0.25530417
     atom    2 type  2   force =     0.00262122   -0.00454009   -0.25530417
     atom    3 type  2   force =     0.00262122    0.00454009   -0.25530417
     atom    4 type  2   force =     0.00000000    0.00000000    0.33375582
     atom    5 type  2   force =     0.00000000   -0.00000000    0.34648338
     atom    6 type  2   force =     0.00000000    0.00000000    0.34648338
     atom    7 type  1   force =     0.17950012    0.00000000   -0.12390227
     atom    8 type  1   force =    -0.17670165    0.00000000   -0.08745746
     atom    9 type  1   force =    -0.08975006    0.15545166   -0.12390227
     atom   10 type  1   force =     0.08835082    0.15302812   -0.08745746
     atom   11 type  1   force =     0.00000000    0.00000000   -0.06018192
     atom   12 type  1   force =     0.08835082   -0.15302812   -0.08745746
     atom   13 type  1   force =     0.00000000    0.00000000   -0.06018192
     atom   14 type  1   force =    -0.08975006   -0.15545166   -0.12390227
     The ionic contribution  to forces
     atom    1 type  2   force =    -0.75873851    0.00001626 -121.89487099
     atom    2 type  2   force =     0.37938333   -0.65707869 -121.89487099
     atom    3 type  2   force =     0.37935518    0.65706244 -121.89482218
     atom    4 type  2   force =    -0.00000000   -0.00000000   47.52876260
     atom    5 type  2   force =    -0.00010276    0.00005933   39.97862950
     atom    6 type  2   force =     0.00010276   -0.00005933   39.97862950
     atom    7 type  1   force =    -0.95350298    0.00001030   29.39079787
     atom    8 type  1   force =     0.95997647   -0.00001027   29.53351991
     atom    9 type  1   force =     0.47676041   -0.82575265   29.39079787
     atom   10 type  1   force =    -0.47997934   -0.83134861   29.53351444
     atom   11 type  1   force =    -0.00001815    0.00001048   30.71280005
     atom   12 type  1   force =    -0.47999713    0.83135888   29.53351991
     atom   13 type  1   force =     0.00001815   -0.00001048   30.71280005
     atom   14 type  1   force =     0.47674257    0.82574235   29.39079247
     The local contribution  to forces
     atom    1 type  2   force =     0.76886796    0.00000000  122.20645369
     atom    2 type  2   force =    -0.38443398    0.66585919  122.20645369
     atom    3 type  2   force =    -0.38443398   -0.66585919  122.20645369
     atom    4 type  2   force =    -0.00000000   -0.00000000  -47.86124977
     atom    5 type  2   force =    -0.00024869    0.00014358  -40.35194182
     atom    6 type  2   force =     0.00024869   -0.00014358  -40.35194182
     atom    7 type  1   force =     0.78854164   -0.00000000  -29.30474695
     atom    8 type  1   force =    -0.79776578    0.00000000  -29.46861585
     atom    9 type  1   force =    -0.39427082    0.68289709  -29.30474695
     atom   10 type  1   force =     0.39888289    0.69088543  -29.46861585
     atom   11 type  1   force =    -0.00000118    0.00000068  -30.62267824
     atom   12 type  1   force =     0.39888289   -0.69088543  -29.46861585
     atom   13 type  1   force =     0.00000118   -0.00000068  -30.62267824
     atom   14 type  1   force =    -0.39427082   -0.68289709  -29.30474695
     The core correction contribution to forces
     atom    1 type  2   force =    -0.00029826   -0.00000000   -0.02425286
     atom    2 type  2   force =     0.00014913   -0.00025830   -0.02425286
     atom    3 type  2   force =     0.00014913    0.00025830   -0.02425286
     atom    4 type  2   force =     0.00000000    0.00000000    0.02312679
     atom    5 type  2   force =     0.00001294   -0.00000747    0.02160577
     atom    6 type  2   force =    -0.00001294    0.00000747    0.02160577
     atom    7 type  1   force =    -0.00092202   -0.00000000    0.00503635
     atom    8 type  1   force =     0.00074112    0.00000000    0.00281295
     atom    9 type  1   force =     0.00046101   -0.00079849    0.00503635
     atom   10 type  1   force =    -0.00037056   -0.00064183    0.00281295
     atom   11 type  1   force =    -0.00000055    0.00000032   -0.00425330
     atom   12 type  1   force =    -0.00037056    0.00064183    0.00281295
     atom   13 type  1   force =     0.00000055   -0.00000032   -0.00425330
     atom   14 type  1   force =     0.00046101    0.00079849    0.00503635
     The Hubbard contrib.    to forces
     atom    1 type  2   force =     0.00000000    0.00000000    0.00000000
     atom    2 type  2   force =     0.00000000    0.00000000    0.00000000
     atom    3 type  2   force =     0.00000000    0.00000000    0.00000000
     atom    4 type  2   force =     0.00000000    0.00000000    0.00000000
     atom    5 type  2   force =     0.00000000    0.00000000    0.00000000
     atom    6 type  2   force =     0.00000000    0.00000000    0.00000000
     atom    7 type  1   force =     0.00000000    0.00000000    0.00000000
     atom    8 type  1   force =     0.00000000    0.00000000    0.00000000
     atom    9 type  1   force =     0.00000000    0.00000000    0.00000000
     atom   10 type  1   force =     0.00000000    0.00000000    0.00000000
     atom   11 type  1   force =     0.00000000    0.00000000    0.00000000
     atom   12 type  1   force =     0.00000000    0.00000000    0.00000000
     atom   13 type  1   force =     0.00000000    0.00000000    0.00000000
     atom   14 type  1   force =     0.00000000    0.00000000    0.00000000
     The SCF correction term to forces
     atom    1 type  2   force =    -0.00000000   -0.00000000    0.00000000
     atom    2 type  2   force =     0.00000000   -0.00000000    0.00000000
     atom    3 type  2   force =     0.00000000    0.00000000    0.00000000
     atom    4 type  2   force =     0.00000000    0.00000000   -0.00131436
     atom    5 type  2   force =     0.00000000   -0.00000000   -0.00104085
     atom    6 type  2   force =    -0.00000000    0.00000000   -0.00104085
     atom    7 type  1   force =     0.00003739    0.00000000    0.00004742
     atom    8 type  1   force =    -0.00003828   -0.00000000    0.00004927
     atom    9 type  1   force =    -0.00001869    0.00003238    0.00004742
     atom   10 type  1   force =     0.00001914    0.00003315    0.00004927
     atom   11 type  1   force =    -0.00000000    0.00000000    0.00007279
     atom   12 type  1   force =     0.00001914   -0.00003315    0.00004927
     atom   13 type  1   force =     0.00000000   -0.00000000    0.00007279
     atom   14 type  1   force =    -0.00001869   -0.00003238    0.00004742

     Total force =     0.086425     Total SCF correction =     0.001982
     Energy error            =      1.4E-02 Ry
     Gradient error          =      3.3E-02 Ry/Bohr

     number of scf cycles    =   4
     number of bfgs steps    =   3

     energy             old  =   -1191.8213812911 Ry
     energy             new  =   -1191.8352482913 Ry

     CASE: energy            _new < energy            _old

     new trust radius        =       0.1181277466 bohr
     new conv_thr            =       0.0000001387 Ry


ATOMIC_POSITIONS (crystal)
Re            0.3333330000        0.0000000000        0.0000000000    0   0   0
Re            0.0000000000        0.3333330000        0.0000000000    0   0   0
Re            0.6666670000        0.6666670000        0.0000000000    0   0   0
Re           -0.0000000000        0.0000000000        0.1263902844
Re            0.6666670000        0.3333330000        0.1148835508
Re            0.3333330000        0.6666670000        0.1148835508
B             0.3257326572        0.0000000000        0.2434989762
B             0.6737299370       -0.0000000000        0.2456777384
B             0.0000000000        0.3257326572        0.2434989762
B             0.3262700630        0.3262700630        0.2456777384
B             0.6666670000        0.3333330000        0.2575618561
B            -0.0000000000        0.6737299370        0.2456777384
B             0.3333330000        0.6666670000        0.2575618561
B             0.6742673428        0.6742673428        0.2434989762



     Writing config-only to output data dir ../outdir/borophene.save/
     NEW-OLD atomic charge density approx. for the potential

     Check: negative core charge=   -0.000002

     negative rho (up, down):  8.169E-01 0.000E+00

     total cpu time spent up to now is      756.9 secs

     per-process dynamical memory:   227.5 Mb

     Self-consistent Calculation

     iteration #  1     ecut=    50.00 Ry     beta= 0.70
     Davidson diagonalization with overlap
     c_bands:  1 eigenvalues not converged
     ethr =  1.00E-06,  avg # of iterations = 18.0

     negative rho (up, down):  8.169E-01 0.000E+00

     total cpu time spent up to now is      775.6 secs

     total energy              =   -1191.79859003 Ry
     estimated scf accuracy    <       0.07579433 Ry

     iteration #  2     ecut=    50.00 Ry     beta= 0.70
     Davidson diagonalization with overlap
     ethr =  6.65E-05,  avg # of iterations = 12.0

     negative rho (up, down):  8.175E-01 0.000E+00

     total cpu time spent up to now is      785.7 secs

     total energy              =   -1191.17938014 Ry
     estimated scf accuracy    <      15.74444696 Ry

     iteration #  3     ecut=    50.00 Ry     beta= 0.70
     Davidson diagonalization with overlap
     ethr =  6.65E-05,  avg # of iterations = 13.0

     negative rho (up, down):  8.180E-01 0.000E+00

     total cpu time spent up to now is      805.1 secs

     total energy              =   -1191.84887071 Ry
     estimated scf accuracy    <       0.01926882 Ry

     iteration #  4     ecut=    50.00 Ry     beta= 0.70
     Davidson diagonalization with overlap
     ethr =  1.69E-05,  avg # of iterations =  3.0

     negative rho (up, down):  8.180E-01 0.000E+00

     total cpu time spent up to now is      805.7 secs

     total energy              =   -1191.84947954 Ry
     estimated scf accuracy    <       0.02543779 Ry

     iteration #  5     ecut=    50.00 Ry     beta= 0.70
     Davidson diagonalization with overlap
     ethr =  1.69E-05,  avg # of iterations =  2.5

     negative rho (up, down):  8.183E-01 0.000E+00

     total cpu time spent up to now is      829.0 secs

     total energy              =   -1191.85201795 Ry
     estimated scf accuracy    <       0.00440820 Ry

     iteration #  6     ecut=    50.00 Ry     beta= 0.70
     Davidson diagonalization with overlap
     ethr =  3.87E-06,  avg # of iterations =  5.5

     negative rho (up, down):  8.182E-01 0.000E+00

     total cpu time spent up to now is      842.7 secs

     total energy              =   -1191.85253653 Ry
     estimated scf accuracy    <       0.00191673 Ry

     iteration #  7     ecut=    50.00 Ry     beta= 0.70
     Davidson diagonalization with overlap
     ethr =  1.68E-06,  avg # of iterations =  2.0

     negative rho (up, down):  8.184E-01 0.000E+00

     total cpu time spent up to now is      841.6 secs

     total energy              =   -1191.85279776 Ry
     estimated scf accuracy    <       0.00010264 Ry

     iteration #  8     ecut=    50.00 Ry     beta= 0.70
     Davidson diagonalization with overlap
     ethr =  9.00E-08,  avg # of iterations =  4.0

     negative rho (up, down):  8.184E-01 0.000E+00

     total cpu time spent up to now is      855.0 secs

     total energy              =   -1191.85282266 Ry
     estimated scf accuracy    <       0.00000889 Ry

     iteration #  9     ecut=    50.00 Ry     beta= 0.70
     Davidson diagonalization with overlap
     ethr =  7.80E-09,  avg # of iterations =  4.5

     negative rho (up, down):  8.184E-01 0.000E+00

     total cpu time spent up to now is      867.9 secs

     total energy              =   -1191.85282460 Ry
     estimated scf accuracy    <       0.00000183 Ry

     iteration # 10     ecut=    50.00 Ry     beta= 0.70
     Davidson diagonalization with overlap
     ethr =  1.60E-09,  avg # of iterations =  3.5

     negative rho (up, down):  8.184E-01 0.000E+00

     total cpu time spent up to now is      869.4 secs

     total energy              =   -1191.85282482 Ry
     estimated scf accuracy    <       0.00000017 Ry

     iteration # 11     ecut=    50.00 Ry     beta= 0.70
     Davidson diagonalization with overlap
     ethr =  1.47E-10,  avg # of iterations =  5.0

     negative rho (up, down):  8.184E-01 0.000E+00

     total cpu time spent up to now is      941.2 secs

     End of self-consistent calculation

          k = 0.0000 0.0000 0.0000 ( 14217 PWs)   bands (ev):

   -75.1121 -75.0347 -74.9828 -74.7607 -74.6853 -74.6853 -37.3296 -37.2437
   -37.2436 -37.1442 -37.1405 -37.1405 -36.9388 -36.6993 -36.6992 -36.5636
   -36.5186 -36.5185 -36.5025 -36.4045 -36.4045 -36.3782 -36.1057 -36.1057
   -11.6891  -7.1385  -6.9056  -6.9055  -4.8483  -4.8482  -4.5848  -3.5494
    -2.4420  -1.3540   0.3864   0.3865   1.0657   1.1012   1.1013   1.5533
     1.5534   1.5681   1.9788   1.9789   2.9716   2.9716   3.2748   3.3276
     3.3772   3.3782   3.3782   3.5675   3.5675   3.9491   3.9491   4.3884
     4.6051   5.3640   5.3641   6.0978   6.0978   6.7895   6.8729   6.8729
     7.0182   7.0183   7.4138   7.6692

          k = 0.0000-0.5774 0.0000 ( 14236 PWs)   bands (ev):

   -75.0768 -75.0588 -74.9942 -74.7201 -74.7179 -74.6938 -37.4599 -37.2779
   -37.2388 -37.1515 -37.0415 -36.9410 -36.7663 -36.7355 -36.7309 -36.6814
   -36.5657 -36.5256 -36.4177 -36.3733 -36.3404 -36.3046 -36.2760 -36.2570
   -10.7104  -9.9294  -7.3591  -6.5035  -3.2896  -3.0311  -2.4757  -2.2847
    -1.4650  -1.0995  -0.8390  -0.7156  -0.4664  -0.3831   0.1449   0.6119
     0.8847   1.0210   1.2150   1.4132   1.7048   2.1346   2.1644   2.5428
     2.7353   3.4684   3.5077   3.6295   3.9761   4.1455   4.3347   4.5387
     5.6867   5.7148   5.7269   6.2814   6.5067   7.2693   7.3959   7.4853
     7.6328   7.7887   7.8446   8.6458

     the Fermi energy is     5.5663 ev

!    total energy              =   -1191.85282484 Ry
     estimated scf accuracy    <       0.00000002 Ry
     smearing contrib. (-TS)   =      -0.00939950 Ry
     internal energy E=F+TS    =   -1191.84342534 Ry

     The total energy is F=E-TS. E is the sum of the following terms:
     one-electron contribution =   -5913.82310717 Ry
     hartree contribution      =    2964.38696274 Ry
     xc contribution           =    -337.25292853 Ry
     ewald contribution        =    2094.84564762 Ry

     convergence has been achieved in  11 iterations

     negative rho (up, down):  8.184E-01 0.000E+00

     Forces acting on atoms (cartesian axes, Ry/au):

     atom    1 type  2   force =    -0.00141635    0.00000000    0.00692272
     atom    2 type  2   force =     0.00070818   -0.00122660    0.00692272
     atom    3 type  2   force =     0.00070818    0.00122660    0.00692272
     atom    4 type  2   force =     0.00000000    0.00000000    0.01302298
     atom    5 type  2   force =     0.00000000    0.00000000    0.04731765
     atom    6 type  2   force =     0.00000000    0.00000000    0.04731765
     atom    7 type  1   force =     0.00608395    0.00000000   -0.03436258
     atom    8 type  1   force =    -0.00546612    0.00000000   -0.01946553
     atom    9 type  1   force =    -0.00304197    0.00526885   -0.03436258
     atom   10 type  1   force =     0.00273306    0.00473380   -0.01946553
     atom   11 type  1   force =     0.00000000    0.00000000    0.01652895
     atom   12 type  1   force =     0.00273306   -0.00473380   -0.01946553
     atom   13 type  1   force =     0.00000000    0.00000000    0.01652895
     atom   14 type  1   force =    -0.00304197   -0.00526885   -0.03436258
     The non-local contrib.  to forces
     atom    1 type  2   force =    -0.00902117   -0.00000000   -0.26854234
     atom    2 type  2   force =     0.00451058   -0.00781256   -0.26854234
     atom    3 type  2   force =     0.00451058    0.00781256   -0.26854234
     atom    4 type  2   force =     0.00000000   -0.00000000    0.30801649
     atom    5 type  2   force =     0.00000000    0.00000000    0.37102794
     atom    6 type  2   force =     0.00000000    0.00000000    0.37102794
     atom    7 type  1   force =     0.16113311    0.00000000   -0.11349943
     atom    8 type  1   force =    -0.15782683    0.00000000   -0.08108839
     atom    9 type  1   force =    -0.08056656    0.13954537   -0.11349943
     atom   10 type  1   force =     0.07891342    0.13668204   -0.08108839
     atom   11 type  1   force =     0.00000000    0.00000000   -0.12119501
     atom   12 type  1   force =     0.07891342   -0.13668204   -0.08108839
     atom   13 type  1   force =     0.00000000   -0.00000000   -0.12119501
[...]
     atom    2 type  2   force =    -0.00000000    0.00000000   -0.00000000
     atom    3 type  2   force =    -0.00000000   -0.00000000   -0.00000000
     atom    4 type  2   force =    -0.00000000   -0.00000000    0.00001402
     atom    5 type  2   force =     0.00000000   -0.00000000    0.00001146
     atom    6 type  2   force =    -0.00000000    0.00000000    0.00001146
     atom    7 type  1   force =     0.00000972    0.00000000    0.00001457
     atom    8 type  1   force =    -0.00001112   -0.00000000    0.00001101
     atom    9 type  1   force =    -0.00000486    0.00000841    0.00001457
     atom   10 type  1   force =     0.00000556    0.00000963    0.00001101
     atom   11 type  1   force =    -0.00000000    0.00000000    0.00000968
     atom   12 type  1   force =     0.00000556   -0.00000963    0.00001101
     atom   13 type  1   force =     0.00000000   -0.00000000    0.00000968
     atom   14 type  1   force =    -0.00000486   -0.00000841    0.00001457

     Total force =     0.004501     Total SCF correction =     0.000048
     Energy error            =      6.4E-05 Ry
     Gradient error          =      2.2E-03 Ry/Bohr

     number of scf cycles    =  16
     number of bfgs steps    =  15

     energy             old  =   -1191.9156512711 Ry
     energy             new  =   -1191.9157153234 Ry

     CASE: energy            _new < energy            _old

     new trust radius        =       0.0065315088 bohr
     new conv_thr            =       0.0000000100 Ry


ATOMIC_POSITIONS (crystal)
Re            0.3333330000        0.0000000000        0.0000000000    0   0   0
Re            0.0000000000        0.3333330000        0.0000000000    0   0   0
Re            0.6666670000        0.6666670000        0.0000000000    0   0   0
Re           -0.0000000000        0.0000000000        0.1233038414
Re            0.6666670000        0.3333330000        0.1158988185
Re            0.3333330000        0.6666670000        0.1158988185
B             0.3335584670        0.0000000000        0.2200687518
B             0.6788598797       -0.0000000000        0.2389424517
B             0.0000000000        0.3335584670        0.2200687518
B             0.3211401203        0.3211401203        0.2389424517
B             0.6666670000        0.3333330000        0.2549381213
B            -0.0000000000        0.6788598797        0.2389424517
B             0.3333330000        0.6666670000        0.2549381213
B             0.6664415330        0.6664415330        0.2200687518



     Writing config-only to output data dir ../outdir/borophene.save/
     NEW-OLD atomic charge density approx. for the potential

     Check: negative core charge=   -0.000002

     negative rho (up, down):  8.190E-01 0.000E+00

     total cpu time spent up to now is     2710.1 secs

     per-process dynamical memory:   227.5 Mb

     Self-consistent Calculation

     iteration #  1     ecut=    50.00 Ry     beta= 0.70
     Davidson diagonalization with overlap
     ethr =  1.00E-06,  avg # of iterations =  3.0

     Threshold (ethr) on eigenvalues was too large:
     Diagonalizing with lowered threshold

     Davidson diagonalization with overlap
     ethr =  9.35E-08,  avg # of iterations =  3.5

     negative rho (up, down):  8.190E-01 0.000E+00

     total cpu time spent up to now is     2720.4 secs

     total energy              =   -1191.91565041 Ry
     estimated scf accuracy    <       0.00012359 Ry

     iteration #  2     ecut=    50.00 Ry     beta= 0.70
     Davidson diagonalization with overlap
     ethr =  1.08E-07,  avg # of iterations =  7.0

     negative rho (up, down):  8.190E-01 0.000E+00

     total cpu time spent up to now is     2737.2 secs

     total energy              =   -1191.91491260 Ry
     estimated scf accuracy    <       0.01863100 Ry

     iteration #  3     ecut=    50.00 Ry     beta= 0.70
     Davidson diagonalization with overlap
     ethr =  1.08E-07,  avg # of iterations =  6.5

     negative rho (up, down):  8.190E-01 0.000E+00

     total cpu time spent up to now is     2741.4 secs

     total energy              =   -1191.91568312 Ry
     estimated scf accuracy    <       0.00047162 Ry

     iteration #  4     ecut=    50.00 Ry     beta= 0.70
     Davidson diagonalization with overlap
     ethr =  1.08E-07,  avg # of iterations =  4.0

     negative rho (up, down):  8.190E-01 0.000E+00

     total cpu time spent up to now is     2753.6 secs

     total energy              =   -1191.91573090 Ry
     estimated scf accuracy    <       0.00003418 Ry

     iteration #  5     ecut=    50.00 Ry     beta= 0.70
     Davidson diagonalization with overlap
     ethr =  3.00E-08,  avg # of iterations =  2.0

     negative rho (up, down):  8.190E-01 0.000E+00

     total cpu time spent up to now is     2765.7 secs

     total energy              =   -1191.91573385 Ry
     estimated scf accuracy    <       0.00000547 Ry

     iteration #  6     ecut=    50.00 Ry     beta= 0.70
     Davidson diagonalization with overlap
     ethr =  4.80E-09,  avg # of iterations =  4.0

     negative rho (up, down):  8.190E-01 0.000E+00

     total cpu time spent up to now is     2770.1 secs

     total energy              =   -1191.91573466 Ry
     estimated scf accuracy    <       0.00000293 Ry

     iteration #  7     ecut=    50.00 Ry     beta= 0.70
     Davidson diagonalization with overlap
     ethr =  2.57E-09,  avg # of iterations =  2.0

     negative rho (up, down):  8.190E-01 0.000E+00

     total cpu time spent up to now is     2782.4 secs

     total energy              =   -1191.91573511 Ry
     estimated scf accuracy    <       0.00000011 Ry

     iteration #  8     ecut=    50.00 Ry     beta= 0.70
     Davidson diagonalization with overlap
     ethr =  9.96E-11,  avg # of iterations =  5.5

     negative rho (up, down):  8.190E-01 0.000E+00

     total cpu time spent up to now is     2795.6 secs

     total energy              =   -1191.91573515 Ry
     estimated scf accuracy    <       0.00000004 Ry

     iteration #  9     ecut=    50.00 Ry     beta= 0.70
     Davidson diagonalization with overlap
     ethr =  3.56E-11,  avg # of iterations =  2.5

     negative rho (up, down):  8.190E-01 0.000E+00

     total cpu time spent up to now is     2794.7 secs

     End of self-consistent calculation

          k = 0.0000 0.0000 0.0000 ( 14217 PWs)   bands (ev):

   -75.3914 -75.3219 -75.1923 -74.8652 -74.7868 -74.7867 -37.5745 -37.5298
   -37.5298 -37.4175 -37.4174 -37.3798 -37.1629 -36.8219 -36.8219 -36.7764
   -36.7764 -36.7121 -36.6885 -36.5468 -36.5468 -36.5404 -36.2155 -36.2155
   -11.7128  -6.9900  -6.5618  -6.5617  -4.9924  -4.8493  -4.8493  -3.5388
    -2.4761  -1.1996   0.0579   0.0580   0.3756   0.3757   0.9644   0.9645
     1.0274   1.5136   1.5803   1.5803   2.4505   2.4505   3.0534   3.1937
     3.2211   3.2211   3.2509   3.4132   3.4132   4.5043   4.5300   4.5300
     4.5536   5.1104   5.1104   5.8011   5.8011   6.6485   7.0384   7.0385
     7.0508   7.3288   7.3288   7.7535

          k = 0.0000-0.5774 0.0000 ( 14236 PWs)   bands (ev):

   -75.3624 -75.3435 -75.2001 -74.8221 -74.8213 -74.7955 -37.7521 -37.4959
   -37.4852 -37.4130 -37.3192 -37.1928 -37.0350 -36.9992 -36.9519 -36.8922
   -36.7046 -36.6770 -36.5559 -36.5127 -36.5090 -36.4165 -36.3854 -36.3807
   -10.6819  -9.8886  -7.1694  -6.5467  -2.8424  -2.5777  -2.5689  -2.3794
    -1.8418  -1.5533  -0.9937  -0.9126  -0.5837  -0.5564  -0.2035   0.3882
     0.8001   0.8690   0.9312   1.0798   1.3133   2.0830   2.1567   2.5687
     2.6658   3.2125   3.2815   3.4725   4.0058   4.1178   4.1449   4.4069
     5.4838   5.5727   5.6241   6.0820   6.3940   7.2306   7.3229   7.3613
     7.5207   7.6270   7.7635   8.1975

     the Fermi energy is     5.3831 ev

!    total energy              =   -1191.91573515 Ry
     estimated scf accuracy    <          6.1E-09 Ry
     smearing contrib. (-TS)   =      -0.00573071 Ry
     internal energy E=F+TS    =   -1191.91000444 Ry

     The total energy is F=E-TS. E is the sum of the following terms:
     one-electron contribution =   -6106.90995281 Ry
     hartree contribution      =    3060.38241636 Ry
     xc contribution           =    -337.36755470 Ry
     ewald contribution        =    2191.98508671 Ry

     convergence has been achieved in   9 iterations

     negative rho (up, down):  8.190E-01 0.000E+00

     Forces acting on atoms (cartesian axes, Ry/au):

     atom    1 type  2   force =     0.00103311   -0.00000000    0.00004025
     atom    2 type  2   force =    -0.00051655    0.00089470    0.00004025
     atom    3 type  2   force =    -0.00051655   -0.00089470    0.00004025
     atom    4 type  2   force =     0.00000000   -0.00000000    0.00067817
     atom    5 type  2   force =     0.00000000    0.00000000    0.00018619
     atom    6 type  2   force =     0.00000000    0.00000000    0.00018619
     atom    7 type  1   force =    -0.00010186   -0.00000000    0.00003113
     atom    8 type  1   force =     0.00014928    0.00000000   -0.00029190
     atom    9 type  1   force =     0.00005093   -0.00008821    0.00003113
     atom   10 type  1   force =    -0.00007464   -0.00012928   -0.00029190
     atom   11 type  1   force =     0.00000000    0.00000000   -0.00019451
     atom   12 type  1   force =    -0.00007464    0.00012928   -0.00029190
     atom   13 type  1   force =     0.00000000    0.00000000   -0.00019451
     atom   14 type  1   force =     0.00005093    0.00008821    0.00003113
     The non-local contrib.  to forces
     atom    1 type  2   force =    -0.00424679   -0.00000000   -0.28477266
     atom    2 type  2   force =     0.00212339   -0.00367782   -0.28477266
     atom    3 type  2   force =     0.00212339    0.00367782   -0.28477266
     atom    4 type  2   force =     0.00000000    0.00000000    0.31110490
     atom    5 type  2   force =     0.00000000   -0.00000000    0.36537696
     atom    6 type  2   force =     0.00000000    0.00000000    0.36537696
     atom    7 type  1   force =     0.12169726    0.00000000   -0.04655456
     atom    8 type  1   force =    -0.10733857    0.00000000   -0.11263855
     atom    9 type  1   force =    -0.06084863    0.10539292   -0.04655456
     atom   10 type  1   force =     0.05366928    0.09295793   -0.11263855
     atom   11 type  1   force =     0.00000000    0.00000000   -0.21696350
     atom   12 type  1   force =     0.05366928   -0.09295793   -0.11263855
     atom   13 type  1   force =     0.00000000   -0.00000000   -0.21696350
     atom   14 type  1   force =    -0.06084863   -0.10539292   -0.04655456
     The ionic contribution  to forces
     atom    1 type  2   force =    -0.88766387    0.00001743 -123.98377045
     atom    2 type  2   force =     0.44384703   -0.76873075 -123.98377045
     atom    3 type  2   force =     0.44381684    0.76871332 -123.98371861
     atom    4 type  2   force =    -0.00000000    0.00000000   47.54628512
     atom    5 type  2   force =    -0.00010425    0.00006019   39.20508786
     atom    6 type  2   force =     0.00010425   -0.00006019   39.20508786
     atom    7 type  1   force =    -0.60414153    0.00001051   28.59378297
     atom    8 type  1   force =     1.01556631   -0.00001024   31.21792989
     atom    9 type  1   force =     0.30207987   -0.52319666   28.59378297
     atom   10 type  1   force =    -0.50777429   -0.87949087   31.21792543
     atom   11 type  1   force =    -0.00001525    0.00000880   33.27983573
     atom   12 type  1   force =    -0.50779203    0.87950111   31.21792989
     atom   13 type  1   force =     0.00001525   -0.00000880   33.27983573
     atom   14 type  1   force =     0.30206166    0.52318615   28.59377607
     The local contribution  to forces
     atom    1 type  2   force =     0.89400640   -0.00000000  124.29589097
     atom    2 type  2   force =    -0.44700320    0.77423226  124.29589097
     atom    3 type  2   force =    -0.44700320   -0.77423226  124.29589097
     atom    4 type  2   force =     0.00000000   -0.00000000  -47.88073152
     atom    5 type  2   force =    -0.00024736    0.00014281  -39.59417537
     atom    6 type  2   force =     0.00024736   -0.00014281  -39.59417537
     atom    7 type  1   force =     0.48432514   -0.00000000  -28.55519366
     atom    8 type  1   force =    -0.90483815    0.00000000  -31.10486744
     atom    9 type  1   force =    -0.24216257    0.41943787  -28.55519366
     atom   10 type  1   force =     0.45241908    0.78361283  -31.10486744
     atom   11 type  1   force =    -0.00000204    0.00000118  -33.05741648
     atom   12 type  1   force =     0.45241908   -0.78361283  -31.10486744
     atom   13 type  1   force =     0.00000204   -0.00000118  -33.05741648
     atom   14 type  1   force =    -0.24216257   -0.41943787  -28.55519366
     The core correction contribution to forces
     atom    1 type  2   force =    -0.00107161   -0.00000000   -0.02738106
     atom    2 type  2   force =     0.00053581   -0.00092804   -0.02738106
     atom    3 type  2   force =     0.00053581    0.00092804   -0.02738106
     atom    4 type  2   force =    -0.00000000   -0.00000000    0.02396925
     atom    5 type  2   force =     0.00001299   -0.00000750    0.02382944
     atom    6 type  2   force =    -0.00001299    0.00000750    0.02382944
     atom    7 type  1   force =    -0.00198723    0.00000000    0.00793107
     atom    8 type  1   force =    -0.00323137    0.00000000   -0.00077320
     atom    9 type  1   force =     0.00099361   -0.00172099    0.00793107
     atom   10 type  1   force =     0.00161568    0.00279845   -0.00077320
     atom   11 type  1   force =    -0.00000040    0.00000023   -0.00570717
     atom   12 type  1   force =     0.00161568   -0.00279845   -0.00077320
     atom   13 type  1   force =     0.00000040   -0.00000023   -0.00570717
     atom   14 type  1   force =     0.00099361    0.00172099    0.00793107
     The Hubbard contrib.    to forces
     atom    1 type  2   force =     0.00000000    0.00000000    0.00000000
     atom    2 type  2   force =     0.00000000    0.00000000    0.00000000
     atom    3 type  2   force =     0.00000000    0.00000000    0.00000000
     atom    4 type  2   force =     0.00000000    0.00000000    0.00000000
     atom    5 type  2   force =     0.00000000    0.00000000    0.00000000
     atom    6 type  2   force =     0.00000000    0.00000000    0.00000000
     atom    7 type  1   force =     0.00000000    0.00000000    0.00000000
     atom    8 type  1   force =     0.00000000    0.00000000    0.00000000
     atom    9 type  1   force =     0.00000000    0.00000000    0.00000000
     atom   10 type  1   force =     0.00000000    0.00000000    0.00000000
     atom   11 type  1   force =     0.00000000    0.00000000    0.00000000
     atom   12 type  1   force =     0.00000000    0.00000000    0.00000000
     atom   13 type  1   force =     0.00000000    0.00000000    0.00000000
     atom   14 type  1   force =     0.00000000    0.00000000    0.00000000
     The SCF correction term to forces
     atom    1 type  2   force =    -0.00000000   -0.00000000    0.00000000
     atom    2 type  2   force =     0.00000000   -0.00000000    0.00000000
     atom    3 type  2   force =     0.00000000    0.00000000    0.00000000
     atom    4 type  2   force =     0.00000000    0.00000000    0.00003614
     atom    5 type  2   force =     0.00000000   -0.00000000    0.00005302
     atom    6 type  2   force =    -0.00000000    0.00000000    0.00005302
     atom    7 type  1   force =    -0.00000156    0.00000000    0.00005335
     atom    8 type  1   force =    -0.00000303   -0.00000000    0.00004462
     atom    9 type  1   force =     0.00000078   -0.00000135    0.00005335
     atom   10 type  1   force =     0.00000152    0.00000263    0.00004462
     atom   11 type  1   force =    -0.00000000    0.00000000    0.00004263
     atom   12 type  1   force =     0.00000152   -0.00000263    0.00004462
     atom   13 type  1   force =     0.00000000   -0.00000000    0.00004263
     atom   14 type  1   force =     0.00000078    0.00000135    0.00005335

     Total force =     0.000981     Total SCF correction =     0.000158
     SCF correction compared to forces is large: reduce conv_thr to get better values
     Energy error            =      2.0E-05 Ry
     Gradient error          =      6.8E-04 Ry/Bohr

     bfgs converged in  17 scf cycles and  16 bfgs steps
     (criteria: energy <  1.0E-03 Ry, force <  1.0E-03 Ry/Bohr)

     End of BFGS Geometry Optimization

     Final energy             =   -1191.9157351495 Ry

     File ../outdir/borophene.bfgs deleted, as requested
Begin final coordinates

ATOMIC_POSITIONS (crystal)
Re            0.3333330000        0.0000000000        0.0000000000    0   0   0
Re            0.0000000000        0.3333330000        0.0000000000    0   0   0
Re            0.6666670000        0.6666670000        0.0000000000    0   0   0
Re           -0.0000000000        0.0000000000        0.1233038414
Re            0.6666670000        0.3333330000        0.1158988185
Re            0.3333330000        0.6666670000        0.1158988185
B             0.3335584670        0.0000000000        0.2200687518
B             0.6788598797       -0.0000000000        0.2389424517
B             0.0000000000        0.3335584670        0.2200687518
B             0.3211401203        0.3211401203        0.2389424517
B             0.6666670000        0.3333330000        0.2549381213
B            -0.0000000000        0.6788598797        0.2389424517
B             0.3333330000        0.6666670000        0.2549381213
B             0.6664415330        0.6664415330        0.2200687518
End final coordinates



     Writing all to output data dir ../outdir/borophene.save/

     init_run     :     13.11s CPU     13.34s WALL (       1 calls)
     electrons    :   3863.77s CPU   2710.88s WALL (      17 calls)
     update_pot   :     12.35s CPU     -2.52s WALL (      16 calls)
     forces       :     83.27s CPU     62.03s WALL (      17 calls)

     Called by init_run:
     wfcinit      :      8.53s CPU      6.23s WALL (       1 calls)
     potinit      :      0.47s CPU      0.32s WALL (       1 calls)
     hinit0       :      2.04s CPU      1.83s WALL (       1 calls)

     Called by electrons:
     c_bands      :   2864.73s CPU   1586.99s WALL (     190 calls)
     sum_band     :    708.60s CPU    878.99s WALL (     190 calls)
     v_of_rho     :     45.34s CPU     13.07s WALL (     205 calls)
     newd         :    262.95s CPU    215.93s WALL (     205 calls)
     mix_rho      :      7.20s CPU     15.79s WALL (     190 calls)

     Called by c_bands:
     init_us_2    :     19.50s CPU     21.04s WALL (     796 calls)
     init_us_2:cp :     19.45s CPU     20.92s WALL (     796 calls)
     cegterg      :   2762.23s CPU   1508.51s WALL (     380 calls)

     Called by *egterg:
     cdiaghg      :     18.78s CPU     -2.85s WALL (    2524 calls)
     h_psi        :   2126.65s CPU   1317.41s WALL (    2562 calls)
     s_psi        :    194.28s CPU     82.50s WALL (    2562 calls)
     g_psi        :      5.81s CPU     -4.60s WALL (    2180 calls)

     Called by h_psi:
     h_psi:calbec :    220.31s CPU    101.99s WALL (    2562 calls)
     vloc_psi     :   1702.81s CPU   1038.14s WALL (    2562 calls)
     add_vuspsi   :    196.74s CPU    170.84s WALL (    2562 calls)

     General routines
     calbec       :    310.99s CPU    142.78s WALL (    3078 calls)
     fft          :     18.06s CPU     -6.95s WALL (    2460 calls)
     ffts         :      1.54s CPU      1.38s WALL (     190 calls)
     fftw         :   1550.61s CPU    910.74s WALL (  179428 calls)

     Parallel routines

     PWSCF        :      1h 6m CPU  46m39.02s WALL


   This run was terminated on:  11:19:43  30Jul2025            

=------------------------------------------------------------------------------=
   JOB DONE.
=------------------------------------------------------------------------------=
