
     Program PWSCF v.7.2 starts on 30Jul2025 at 10:15:24 

     This program is part of the open-source Quantum ESPRESSO suite
     for quantum simulation of materials; please cite
         "P. Giannozzi et al., J. Phys.:Condens. Matter 21 395502 (2009);
         "P. Giannozzi et al., J. Phys.:Condens. Matter 29 465901 (2017);
         "P. Giannozzi et al., J. Chem. Phys. 152 154105 (2020);
          URL http://www.quantum-espresso.org", 
     in publications or presentations arising from this work. More details at
     http://www.quantum-espresso.org/quote

     Parallel version (MPI & OpenMP), running on       2 processor cores
     Number of MPI processes:                 1
     Threads/MPI process:                     2

     MPI processes distributed on     1 nodes
     590 MiB available memory on the printing compute node when the environment starts

     Reading input from alpha.scf.in

     Current dimensions of program PWSCF are:
     Max number of different atomic species (ntypx) = 10
     Max number of k-points (npk) =  40000
     Max angular momentum in pseudopotentials (lmaxx) =  4
     file B.pbesol-n-rrkjus_psl.1.0.0.UPF: wavefunction(s)  2S renormalized

     Subspace diagonalization in iterative solution of the eigenvalue problem:
     a serial algorithm will be used


     G-vector sticks info
     --------------------
     sticks:   dense  smooth     PW     G-vecs:    dense   smooth      PW
     Sum        1135    1135    313               113857   113857   17133

     Using Slab Decomposition



     bravais-lattice index     =            4
     lattice parameter (alat)  =       9.0360  a.u.
     unit-cell volume          =    2382.6030 (a.u.)^3
     number of atoms/cell      =           14
     number of atomic types    =            2
     number of electrons       =       114.00
     number of Kohn-Sham states=           68
     kinetic-energy cutoff     =      50.0000  Ry
     charge density cutoff     =     200.0000  Ry
     scf convergence threshold =      1.0E-06
     mixing beta               =       0.7000
     number of iterations used =            8  plain     mixing
     Exchange-correlation= SLA  PW   PSX  PSC
                           (   1   4  10   8   0   0   0)

     celldm(1)=   9.036000  celldm(2)=   0.000000  celldm(3)=   3.729000
     celldm(4)=   0.000000  celldm(5)=   0.000000  celldm(6)=   0.000000

     crystal axes: (cart. coord. in units of alat)
               a(1) = (   1.000000   0.000000   0.000000 )  
               a(2) = (  -0.500000   0.866025   0.000000 )  
               a(3) = (   0.000000   0.000000   3.729000 )  

     reciprocal axes: (cart. coord. in units 2 pi/alat)
               b(1) = (  1.000000  0.577350 -0.000000 )  
               b(2) = (  0.000000  1.154701  0.000000 )  
               b(3) = (  0.000000 -0.000000  0.268168 )  


     PseudoPot. # 1 for B  read from file:
     ../pseudo/B.pbesol-n-rrkjus_psl.1.0.0.UPF
     MD5 check sum: a3839a09b1a4e02f2a06a66adc9253fc
     Pseudo is Ultrasoft + core correction, Zval =  3.0
     Generated using &quot;atomic&quot; code by A. Dal Corso  v.6.3MaX
     Using radial grid of 1059 points,  4 beta functions with: 
                l(1) =   0
                l(2) =   0
                l(3) =   1
                l(4) =   1
     Q(r) pseudized with 0 coefficients 


     PseudoPot. # 2 for Re read from file:
     ../pseudo/re_pbesol_v1.2.uspp.F.UPF
     MD5 check sum: aaf9138663fa2d46e1797bae542d0e3d
     Pseudo is Ultrasoft + core correction, Zval = 15.0
     Generated by new atomic code, or converted to UPF format
     Using radial grid of  981 points,  8 beta functions with: 
                l(1) =   0
                l(2) =   0
                l(3) =   1
                l(4) =   1
                l(5) =   2
                l(6) =   2
                l(7) =   3
                l(8) =   3
     Q(r) pseudized with  8 coefficients,  rinner =    1.150   1.150   1.150
                                                       1.150   1.150   1.150
                                                       1.150

     atomic species   valence    mass     pseudopotential
        B              3.00    10.81100     B ( 1.00)
        Re            15.00   186.20700     Re( 1.00)

      6 Sym. Ops. (no inversion) found



   Cartesian axes

     site n.     atom                  positions (alat units)
         1           Re  tau(   1) = (   0.3333330   0.0000000   0.0000000  )
         2           Re  tau(   2) = (  -0.1666665   0.2886748   0.0000000  )
         3           Re  tau(   3) = (   0.3333335   0.5773506   0.0000000  )
         4           Re  tau(   4) = (   0.0000000   0.0000000   0.4661250  )
         5           Re  tau(   5) = (   0.5000005   0.2886748   0.4661250  )
         6           Re  tau(   6) = (  -0.0000005   0.5773506   0.4661250  )
         7           B   tau(   7) = (   0.3333330   0.0000000   0.9322500  )
         8           B   tau(   8) = (   0.6666670   0.0000000   0.9322500  )
         9           B   tau(   9) = (  -0.1666665   0.2886748   0.9322500  )
        10           B   tau(  10) = (   0.1666665   0.2886748   0.9322500  )
        11           B   tau(  11) = (   0.5000005   0.2886748   0.9322500  )
        12           B   tau(  12) = (  -0.3333335   0.5773506   0.9322500  )
        13           B   tau(  13) = (  -0.0000005   0.5773506   0.9322500  )
        14           B   tau(  14) = (   0.3333335   0.5773506   0.9322500  )

     number of k points=     3  Marzari-Vanderbilt smearing, width (Ry)=  0.0200
                       cart. coord. in units 2pi/alat
        k(    1) = (   0.0000000   0.0000000   0.0000000), wk =   0.2222222
        k(    2) = (   0.0000000   0.3849002   0.0000000), wk =   1.3333333
        k(    3) = (   0.3333333   0.5773503   0.0000000), wk =   0.4444444

     Dense  grid:   113857 G-vectors     FFT dimensions: (  45,  45, 160)

     Estimated max dynamical RAM per process >       1.14 GB

     Check: negative core charge=   -0.000002

     Initial potential from superposition of free atoms

     starting charge     110.9975, renormalised to     114.0000

     negative rho (up, down):  8.045E-01 0.000E+00
     Starting wfcs are  110 randomized atomic wfcs

     total cpu time spent up to now is       16.0 secs

     per-process dynamical memory:   180.1 Mb

     Self-consistent Calculation

     iteration #  1     ecut=    50.00 Ry     beta= 0.70
     Davidson diagonalization with overlap
     ethr =  1.00E-02,  avg # of iterations =  2.0

     negative rho (up, down):  8.013E-01 0.000E+00

     total cpu time spent up to now is       39.5 secs

     total energy              =   -1161.71018892 Ry
     estimated scf accuracy    <      36.39192578 Ry

     iteration #  2     ecut=    50.00 Ry     beta= 0.70
     Davidson diagonalization with overlap
     ethr =  1.00E-02,  avg # of iterations = 14.7

     negative rho (up, down):  7.971E-01 0.000E+00

     total cpu time spent up to now is       79.1 secs

     total energy              =   -1087.23125435 Ry
     estimated scf accuracy    <    2316.66389137 Ry

     iteration #  3     ecut=    50.00 Ry     beta= 0.70
     Davidson diagonalization with overlap
     ethr =  1.00E-02,  avg # of iterations =  8.3

     negative rho (up, down):  7.923E-01 0.000E+00

     total cpu time spent up to now is      105.2 secs

     total energy              =   -1182.48797320 Ry
     estimated scf accuracy    <     244.45665967 Ry

     iteration #  4     ecut=    50.00 Ry     beta= 0.70
     Davidson diagonalization with overlap
     ethr =  1.00E-02,  avg # of iterations =  5.7

     negative rho (up, down):  7.947E-01 0.000E+00

     total cpu time spent up to now is      128.4 secs

     total energy              =   -1189.09669323 Ry
     estimated scf accuracy    <      43.40924237 Ry

     iteration #  5     ecut=    50.00 Ry     beta= 0.70
     Davidson diagonalization with overlap
     ethr =  1.00E-02,  avg # of iterations =  5.7

     negative rho (up, down):  8.084E-01 0.000E+00

     total cpu time spent up to now is      140.1 secs

     total energy              =   -1191.40853962 Ry
     estimated scf accuracy    <       0.89193416 Ry

     iteration #  6     ecut=    50.00 Ry     beta= 0.70
     Davidson diagonalization with overlap
     ethr =  7.82E-04,  avg # of iterations =  9.0

     negative rho (up, down):  8.057E-01 0.000E+00

     total cpu time spent up to now is      168.6 secs

     total energy              =   -1191.35049438 Ry
     estimated scf accuracy    <      11.51893416 Ry

     iteration #  7     ecut=    50.00 Ry     beta= 0.70
     Davidson diagonalization with overlap
     ethr =  7.82E-04,  avg # of iterations =  2.0

     negative rho (up, down):  8.095E-01 0.000E+00

     total cpu time spent up to now is      177.2 secs

     total energy              =   -1191.70158810 Ry
     estimated scf accuracy    <       0.18375424 Ry

     iteration #  8     ecut=    50.00 Ry     beta= 0.70
     Davidson diagonalization with overlap
     ethr =  1.61E-04,  avg # of iterations =  6.7

     negative rho (up, down):  8.147E-01 0.000E+00

     total cpu time spent up to now is      202.6 secs

     total energy              =   -1191.72615670 Ry
     estimated scf accuracy    <       0.19889297 Ry

     iteration #  9     ecut=    50.00 Ry     beta= 0.70
     Davidson diagonalization with overlap
     ethr =  1.61E-04,  avg # of iterations =  1.3

     negative rho (up, down):  8.209E-01 0.000E+00

     total cpu time spent up to now is      227.0 secs

     total energy              =   -1191.70309860 Ry
     estimated scf accuracy    <       0.26078802 Ry

     iteration # 10     ecut=    50.00 Ry     beta= 0.70
     Davidson diagonalization with overlap
     ethr =  1.61E-04,  avg # of iterations =  1.3

     negative rho (up, down):  8.200E-01 0.000E+00

     total cpu time spent up to now is      294.9 secs

     total energy              =   -1191.71754601 Ry
     estimated scf accuracy    <       0.02014480 Ry

     iteration # 11     ecut=    50.00 Ry     beta= 0.70
     Davidson diagonalization with overlap
     ethr =  1.77E-05,  avg # of iterations =  3.3

     negative rho (up, down):  8.199E-01 0.000E+00

     total cpu time spent up to now is      321.2 secs

     total energy              =   -1191.71875619 Ry
     estimated scf accuracy    <       0.00083172 Ry

     iteration # 12     ecut=    50.00 Ry     beta= 0.70
     Davidson diagonalization with overlap
     ethr =  7.30E-07,  avg # of iterations = 10.7

     negative rho (up, down):  8.195E-01 0.000E+00

     total cpu time spent up to now is      343.2 secs

     total energy              =   -1191.71889707 Ry
     estimated scf accuracy    <       0.00089410 Ry

     iteration # 13     ecut=    50.00 Ry     beta= 0.70
     Davidson diagonalization with overlap
     ethr =  7.30E-07,  avg # of iterations =  1.7

     negative rho (up, down):  8.194E-01 0.000E+00

     total cpu time spent up to now is      366.3 secs

     total energy              =   -1191.71896779 Ry
     estimated scf accuracy    <       0.00010050 Ry

     iteration # 14     ecut=    50.00 Ry     beta= 0.70
     Davidson diagonalization with overlap
     ethr =  8.82E-08,  avg # of iterations =  3.7

     negative rho (up, down):  8.194E-01 0.000E+00

     total cpu time spent up to now is      378.3 secs

     total energy              =   -1191.71897234 Ry
     estimated scf accuracy    <       0.00001291 Ry

     iteration # 15     ecut=    50.00 Ry     beta= 0.70
     Davidson diagonalization with overlap
     ethr =  1.13E-08,  avg # of iterations =  2.7

     negative rho (up, down):  8.194E-01 0.000E+00

     total cpu time spent up to now is      403.9 secs

     total energy              =   -1191.71897421 Ry
     estimated scf accuracy    <       0.00000173 Ry

     iteration # 16     ecut=    50.00 Ry     beta= 0.70
     Davidson diagonalization with overlap
     ethr =  1.51E-09,  avg # of iterations =  5.7

     negative rho (up, down):  8.194E-01 0.000E+00

     total cpu time spent up to now is      415.4 secs

     End of self-consistent calculation

          k = 0.0000 0.0000 0.0000 ( 14217 PWs)   bands (ev):

   -74.9178 -74.8489 -74.7432 -74.7134 -74.6404 -74.6404 -37.1035 -36.9544
   -36.9543 -36.9206 -36.8873 -36.8873 -36.8022 -36.6044 -36.6044 -36.5294
   -36.4807 -36.4114 -36.4113 -36.3768 -36.2389 -36.2389 -36.0096 -36.0096
   -12.3738  -7.9360  -7.8710  -7.8710  -5.4188  -5.4187  -4.6712  -3.6395
    -2.3661  -1.2065   0.8967   0.8968   1.0489   1.4948   1.4949   1.7770
     1.8538   1.8539   2.0336   2.0337   2.7701   2.7701   3.0760   3.5571
     3.5977   3.6006   3.6006   3.6274   3.8211   3.8211   4.0512   4.0512
     4.6813   5.2717   5.2717   5.5834   5.5835   6.4117   6.7223   6.7224
     6.8046   6.8046   7.5443   7.5443

          k = 0.0000 0.3849 0.0000 ( 14230 PWs)   bands (ev):

   -74.8988 -74.8616 -74.7477 -74.6938 -74.6557 -74.6469 -37.1523 -37.0486
   -37.0119 -36.9770 -36.8724 -36.6824 -36.6295 -36.5913 -36.5437 -36.5184
   -36.4090 -36.3866 -36.3753 -36.3232 -36.2949 -36.2682 -36.2582 -36.0857
   -11.8488 -10.0535  -8.1537  -6.8194  -4.9551  -4.3485  -3.6024  -2.4455
    -1.2848  -0.9879  -0.4143  -0.2262  -0.0201   0.1429   0.3044   0.5828
     0.8131   1.3552   1.7137   1.8076   2.3985   2.4932   2.6969   2.9186
     2.9959   3.2951   3.3823   3.8527   4.0461   4.1244   4.5850   4.8480
     5.0932   5.5019   5.7822   6.0584   6.3824   6.7741   6.9918   7.2650
     7.6916   7.7884   7.8718   8.0870

          k = 0.3333 0.5774 0.0000 ( 14214 PWs)   bands (ev):

   -74.8782 -74.8782 -74.7513 -74.6664 -74.6664 -74.6642 -37.0145 -37.0144
   -37.0080 -36.9413 -36.9413 -36.8348 -36.6177 -36.6177 -36.5783 -36.4462
   -36.4130 -36.4130 -36.3871 -36.3871 -36.3389 -36.1658 -36.1547 -36.1547
   -11.0270 -11.0269  -8.9377  -5.0874  -5.0873  -3.9532  -3.4472  -2.2686
    -2.2685  -0.8194  -0.5158  -0.5158  -0.3404   0.1600   0.1600   0.3662
     0.3662   0.4835   1.3636   1.3636   1.5635   2.9413   2.9413   3.2011
     3.7715   3.7716   4.0675   4.3948   4.3948   4.6403   4.7554   4.7554
     5.0684   6.4772   6.4772   6.5493   6.8620   6.9369   6.9370   7.7566
     7.7831   7.7831   8.0516   8.0964

     the Fermi energy is     5.2287 ev

!    total energy              =   -1191.71897385 Ry
     estimated scf accuracy    <       0.00000078 Ry
     smearing contrib. (-TS)   =       0.00421052 Ry
     internal energy E=F+TS    =   -1191.72318437 Ry

     The total energy is F=E-TS. E is the sum of the following terms:
     one-electron contribution =   -5831.92887823 Ry
     hartree contribution      =    2923.52897824 Ry
     xc contribution           =    -337.16952232 Ry
     ewald contribution        =    2053.84623793 Ry

     convergence has been achieved in  16 iterations

     Writing all to output data dir ../outdir/borophene.save/

     init_run     :     16.98s CPU     15.64s WALL (       1 calls)
     electrons    :    586.40s CPU    399.50s WALL (       1 calls)

     Called by init_run:
     wfcinit      :     12.58s CPU      8.88s WALL (       1 calls)
     potinit      :      0.43s CPU      0.29s WALL (       1 calls)
     hinit0       :      1.97s CPU      1.78s WALL (       1 calls)

     Called by electrons:
     c_bands      :    446.98s CPU    208.75s WALL (      16 calls)
     sum_band     :    102.45s CPU    138.47s WALL (      16 calls)
     v_of_rho     :      4.58s CPU      4.50s WALL (      17 calls)
     newd         :     32.87s CPU     47.75s WALL (      17 calls)
     mix_rho      :      1.35s CPU      3.63s WALL (      16 calls)

     Called by c_bands:
     init_us_2    :      3.36s CPU      4.20s WALL (      99 calls)
     init_us_2:cp :      3.35s CPU      4.19s WALL (      99 calls)
     cegterg      :    431.04s CPU    194.05s WALL (      48 calls)

     Called by *egterg:
     cdiaghg      :      2.69s CPU      2.80s WALL (     301 calls)
     h_psi        :    349.64s CPU    178.57s WALL (     304 calls)
     s_psi        :     29.61s CPU      4.93s WALL (     304 calls)
     g_psi        :      0.95s CPU      0.83s WALL (     253 calls)

     Called by h_psi:
     h_psi:calbec :     27.41s CPU      6.21s WALL (     304 calls)
     vloc_psi     :    293.76s CPU    155.24s WALL (     304 calls)
     add_vuspsi   :     27.24s CPU     15.58s WALL (     304 calls)

     General routines
     calbec       :     35.40s CPU     10.67s WALL (     352 calls)
     fft          :      2.60s CPU      2.43s WALL (     187 calls)
     ffts         :      0.16s CPU      0.15s WALL (      16 calls)
     fftw         :    264.24s CPU    211.14s WALL (   23650 calls)

     Parallel routines

     PWSCF        :  10m 3.84s CPU   6m56.25s WALL


   This run was terminated on:  10:22:20  30Jul2025            

=------------------------------------------------------------------------------=
   JOB DONE.
=------------------------------------------------------------------------------=
