
     Program PWSCF v.7.2 starts on 30Jul2025 at 12:50:38 

     This program is part of the open-source Quantum ESPRESSO suite
     for quantum simulation of materials; please cite
         "P. Giannozzi et al., J. Phys.:Condens. Matter 21 395502 (2009);
         "P. Giannozzi et al., J. Phys.:Condens. Matter 29 465901 (2017);
         "P. Giannozzi et al., J. Chem. Phys. 152 154105 (2020);
          URL http://www.quantum-espresso.org", 
     in publications or presentations arising from this work. More details at
     http://www.quantum-espresso.org/quote

     Parallel version (MPI & OpenMP), running on       2 processor cores
     Number of MPI processes:                 1
     Threads/MPI process:                     2

     MPI processes distributed on     1 nodes
     1067 MiB available memory on the printing compute node when the environment starts

     Reading input from B_isolated.scf.in

     Current dimensions of program PWSCF are:
     Max number of different atomic species (ntypx) = 10
     Max number of k-points (npk) =  40000
     Max angular momentum in pseudopotentials (lmaxx) =  4
     file B.pbesol-n-rrkjus_psl.1.0.0.UPF: wavefunction(s)  2S renormalized

     gamma-point specific algorithms are used

     Subspace diagonalization in iterative solution of the eigenvalue problem:
     a serial algorithm will be used


     G-vector sticks info
     --------------------
     sticks:   dense  smooth     PW     G-vecs:    dense   smooth      PW
     Sum        6369    6369   1597               382323   382323   47833

     Using Slab Decomposition



     bravais-lattice index     =            1
     lattice parameter (alat)  =      20.0000  a.u.
     unit-cell volume          =    8000.0000 (a.u.)^3
     number of atoms/cell      =            1
     number of atomic types    =            1
     number of electrons       =         3.00
     number of Kohn-Sham states=            6
     kinetic-energy cutoff     =      50.0000  Ry
     charge density cutoff     =     200.0000  Ry
     scf convergence threshold =      1.0E-06
     mixing beta               =       0.7000
     number of iterations used =            8  plain     mixing
     Exchange-correlation= PBESOL
                           (   1   4  10   8   0   0   0)

     celldm(1)=  20.000000  celldm(2)=   0.000000  celldm(3)=   0.000000
     celldm(4)=   0.000000  celldm(5)=   0.000000  celldm(6)=   0.000000

     crystal axes: (cart. coord. in units of alat)
               a(1) = (   1.000000   0.000000   0.000000 )  
               a(2) = (   0.000000   1.000000   0.000000 )  
               a(3) = (   0.000000   0.000000   1.000000 )  

     reciprocal axes: (cart. coord. in units 2 pi/alat)
               b(1) = (  1.000000  0.000000  0.000000 )  
               b(2) = (  0.000000  1.000000  0.000000 )  
               b(3) = (  0.000000  0.000000  1.000000 )  


     PseudoPot. # 1 for B  read from file:
     ../pseudo/B.pbesol-n-rrkjus_psl.1.0.0.UPF
     MD5 check sum: a3839a09b1a4e02f2a06a66adc9253fc
     Pseudo is Ultrasoft + core correction, Zval =  3.0
     Generated using &quot;atomic&quot; code by A. Dal Corso  v.6.3MaX
     Using radial grid of 1059 points,  4 beta functions with: 
                l(1) =   0
                l(2) =   0
                l(3) =   1
                l(4) =   1
     Q(r) pseudized with 0 coefficients 


     atomic species   valence    mass     pseudopotential
        B              3.00    10.81100     B ( 1.00)

     Starting magnetic structure 
     atomic species   magnetization
        B            0.500

     48 Sym. Ops., with inversion, found



   Cartesian axes

     site n.     atom                  positions (alat units)
         1           B   tau(   1) = (   0.0000000   0.0000000   0.0000000  )

     number of k points=     1  Marzari-Vanderbilt smearing, width (Ry)=  0.0200
                       cart. coord. in units 2pi/alat
        k(    1) = (   0.0000000   0.0000000   0.0000000), wk =   1.0000000

     Dense  grid:   191162 G-vectors     FFT dimensions: (  96,  96,  96)

     Estimated max dynamical RAM per process >     373.38 MB
     Generating pointlists ...
     new r_m :   0.4125 (alat units)  8.2500 (a.u.) for type    1

     Initial potential from superposition of free atoms

     starting charge       2.9997, renormalised to       3.0000

     negative rho (up, down):  1.429E-03 4.764E-04
     Starting wfcs are    4 randomized atomic wfcs +    2 random wfcs

     total cpu time spent up to now is        3.4 secs

     per-process dynamical memory:   185.8 Mb

     Self-consistent Calculation

     iteration #  1     ecut=    50.00 Ry     beta= 0.70
     Davidson diagonalization with overlap
     ethr =  1.00E-02,  avg # of iterations =  7.0

     Threshold (ethr) on eigenvalues was too large:
     Diagonalizing with lowered threshold

     Davidson diagonalization with overlap
     ethr =  3.91E-05,  avg # of iterations = 15.0

     negative rho (up, down):  1.479E-03 5.072E-04

     total cpu time spent up to now is       13.5 secs

     total energy              =      -5.79284785 Ry
     estimated scf accuracy    <       0.00130147 Ry

     total magnetization       =     1.00 Bohr mag/cell
     absolute magnetization    =     1.00 Bohr mag/cell

     iteration #  2     ecut=    50.00 Ry     beta= 0.70
     Davidson diagonalization with overlap
     ethr =  4.34E-05,  avg # of iterations =  1.5

     negative rho (up, down):  1.445E-03 5.428E-04

     total cpu time spent up to now is       15.9 secs

     total energy              =      -5.79388817 Ry
     estimated scf accuracy    <       0.00013673 Ry

     total magnetization       =     1.00 Bohr mag/cell
     absolute magnetization    =     1.00 Bohr mag/cell

     iteration #  3     ecut=    50.00 Ry     beta= 0.70
     Davidson diagonalization with overlap
     ethr =  4.56E-06,  avg # of iterations = 11.0

     negative rho (up, down):  1.401E-03 5.629E-04

     total cpu time spent up to now is       21.2 secs

     total energy              =      -5.79398634 Ry
     estimated scf accuracy    <       0.00000836 Ry

     total magnetization       =     1.00 Bohr mag/cell
     absolute magnetization    =     1.00 Bohr mag/cell

     iteration #  4     ecut=    50.00 Ry     beta= 0.70
     Davidson diagonalization with overlap
     ethr =  2.79E-07,  avg # of iterations =  2.5

     negative rho (up, down):  1.384E-03 5.660E-04

     Magnetic moment per site  (integrated on atomic sphere of radius R)
     atom   1 (R=0.413)  charge=  2.9996  magn=  0.9996

     total cpu time spent up to now is       23.8 secs

     End of self-consistent calculation

 ------ SPIN UP ------------


          k = 0.0000 0.0000 0.0000 ( 23917 PWs)   bands (ev):

    -9.7131  -3.8598  -3.8597  -3.8596  -0.4266   0.9226

 ------ SPIN DOWN ----------


          k = 0.0000 0.0000 0.0000 ( 23917 PWs)   bands (ev):

    -8.4740  -2.7391  -2.7390  -2.7387  -0.2219   1.0737

     the Fermi energy is    -3.8875 ev

!    total energy              =      -5.79399436 Ry
     estimated scf accuracy    <       0.00000017 Ry
     smearing contrib. (-TS)   =      -0.01006224 Ry
     internal energy E=F+TS    =      -5.78393211 Ry

     The total energy is F=E-TS. E is the sum of the following terms:
     one-electron contribution =      -4.97277288 Ry
     hartree contribution      =       2.75377594 Ry
     xc contribution           =      -2.28815127 Ry
     ewald contribution        =      -1.27678390 Ry

     total magnetization       =     1.00 Bohr mag/cell
     absolute magnetization    =     1.00 Bohr mag/cell

     convergence has been achieved in   4 iterations

     Writing all to output data dir ../outdir/boron.save/

     init_run     :      4.08s CPU      3.37s WALL (       1 calls)
     electrons    :     25.46s CPU     20.41s WALL (       1 calls)

     Called by init_run:
     wfcinit      :      1.65s CPU      1.34s WALL (       1 calls)
     potinit      :      0.72s CPU      0.58s WALL (       1 calls)
     hinit0       :      1.46s CPU      1.20s WALL (       1 calls)

     Called by electrons:
     c_bands      :     18.96s CPU     15.16s WALL (       5 calls)
     sum_band     :      3.02s CPU      2.38s WALL (       5 calls)
     v_of_rho     :      3.27s CPU      2.45s WALL (       5 calls)
     newd         :      0.72s CPU      0.78s WALL (       5 calls)
     mix_rho      :      0.22s CPU      0.23s WALL (       5 calls)

     Called by c_bands:
     init_us_2    :      0.06s CPU      0.07s WALL (      22 calls)
     init_us_2:cp :      0.06s CPU      0.07s WALL (      22 calls)
     regterg      :     18.88s CPU     15.09s WALL (      10 calls)

     Called by *egterg:
     rdiaghg      :      0.13s CPU      0.12s WALL (      82 calls)
     h_psi        :     19.64s CPU     15.67s WALL (      86 calls)
     s_psi        :      0.04s CPU      0.03s WALL (      86 calls)
     g_psi        :      0.09s CPU      0.07s WALL (      74 calls)

     Called by h_psi:
     h_psi:calbec :      0.08s CPU      0.09s WALL (      86 calls)
     vloc_psi     :     19.44s CPU     15.48s WALL (      86 calls)
     add_vuspsi   :      0.05s CPU      0.04s WALL (      86 calls)

     General routines
     calbec       :      0.11s CPU      0.10s WALL (      96 calls)
     fft          :      2.29s CPU      1.71s WALL (      76 calls)
     ffts         :      0.09s CPU      0.06s WALL (       5 calls)
     fftw         :     19.35s CPU     15.37s WALL (     318 calls)

     Parallel routines

     PWSCF        :     29.60s CPU     23.91s WALL


   This run was terminated on:  12:51: 2  30Jul2025            

=------------------------------------------------------------------------------=
   JOB DONE.
=------------------------------------------------------------------------------=
