
     Program PWSCF v.7.2 starts on 30Jul2025 at 12: 7:13 

     This program is part of the open-source Quantum ESPRESSO suite
     for quantum simulation of materials; please cite
         "P. Giannozzi et al., J. Phys.:Condens. Matter 21 395502 (2009);
         "P. Giannozzi et al., J. Phys.:Condens. Matter 29 465901 (2017);
         "P. Giannozzi et al., J. Chem. Phys. 152 154105 (2020);
          URL http://www.quantum-espresso.org", 
     in publications or presentations arising from this work. More details at
     http://www.quantum-espresso.org/quote

     Parallel version (MPI & OpenMP), running on       2 processor cores
     Number of MPI processes:                 1
     Threads/MPI process:                     2

     MPI processes distributed on     1 nodes
     880 MiB available memory on the printing compute node when the environment starts

     Reading input from Re_isolated.scf.in

     Current dimensions of program PWSCF are:
     Max number of different atomic species (ntypx) = 10
     Max number of k-points (npk) =  40000
     Max angular momentum in pseudopotentials (lmaxx) =  4

     gamma-point specific algorithms are used

     Subspace diagonalization in iterative solution of the eigenvalue problem:
     a serial algorithm will be used


     G-vector sticks info
     --------------------
     sticks:   dense  smooth     PW     G-vecs:    dense   smooth      PW
     Sum        6369    6369   1597               382323   382323   47833

     Using Slab Decomposition



     bravais-lattice index     =            1
     lattice parameter (alat)  =      20.0000  a.u.
     unit-cell volume          =    8000.0000 (a.u.)^3
     number of atoms/cell      =            1
     number of atomic types    =            1
     number of electrons       =        15.00
     number of Kohn-Sham states=           12
     kinetic-energy cutoff     =      50.0000  Ry
     charge density cutoff     =     200.0000  Ry
     scf convergence threshold =      1.0E-06
     mixing beta               =       0.7000
     number of iterations used =            8  plain     mixing
     Exchange-correlation= SLA  PW   PSX  PSC
                           (   1   4  10   8   0   0   0)

     celldm(1)=  20.000000  celldm(2)=   0.000000  celldm(3)=   0.000000
     celldm(4)=   0.000000  celldm(5)=   0.000000  celldm(6)=   0.000000

     crystal axes: (cart. coord. in units of alat)
               a(1) = (   1.000000   0.000000   0.000000 )  
               a(2) = (   0.000000   1.000000   0.000000 )  
               a(3) = (   0.000000   0.000000   1.000000 )  

     reciprocal axes: (cart. coord. in units 2 pi/alat)
               b(1) = (  1.000000  0.000000  0.000000 )  
               b(2) = (  0.000000  1.000000  0.000000 )  
               b(3) = (  0.000000  0.000000  1.000000 )  


     PseudoPot. # 1 for Re read from file:
     ../pseudo/re_pbesol_v1.2.uspp.F.UPF
     MD5 check sum: aaf9138663fa2d46e1797bae542d0e3d
     Pseudo is Ultrasoft + core correction, Zval = 15.0
     Generated by new atomic code, or converted to UPF format
     Using radial grid of  981 points,  8 beta functions with: 
                l(1) =   0
                l(2) =   0
                l(3) =   1
                l(4) =   1
                l(5) =   2
                l(6) =   2
                l(7) =   3
                l(8) =   3
     Q(r) pseudized with  8 coefficients,  rinner =    1.150   1.150   1.150
                                                       1.150   1.150   1.150
                                                       1.150

     atomic species   valence    mass     pseudopotential
        Re            15.00   186.20700     Re( 1.00)

     Starting magnetic structure 
     atomic species   magnetization
        Re           0.500

     48 Sym. Ops., with inversion, found



   Cartesian axes

     site n.     atom                  positions (alat units)
         1           Re  tau(   1) = (   0.0000000   0.0000000   0.0000000  )

     number of k points=     1  Marzari-Vanderbilt smearing, width (Ry)=  0.0200
                       cart. coord. in units 2pi/alat
        k(    1) = (   0.0000000   0.0000000   0.0000000), wk =   1.0000000

     Dense  grid:   191162 G-vectors     FFT dimensions: (  96,  96,  96)

     Estimated max dynamical RAM per process >       1.84 GB
     Generating pointlists ...
     new r_m :   0.4125 (alat units)  8.2500 (a.u.) for type    1

     Initial potential from superposition of free atoms

     starting charge      14.5000, renormalised to      15.0000

     negative rho (up, down):  1.083E-01 3.611E-02
     Starting wfcs are   13 randomized atomic wfcs

     total cpu time spent up to now is      119.5 secs

     per-process dynamical memory:   199.2 Mb

     Self-consistent Calculation

     iteration #  1     ecut=    50.00 Ry     beta= 0.70
     Davidson diagonalization with overlap
     ethr =  1.00E-02,  avg # of iterations =  2.0

     negative rho (up, down):  6.281E-02 7.619E-02

     total cpu time spent up to now is      418.7 secs

     total energy              =    -189.69679968 Ry
     estimated scf accuracy    <       0.33399106 Ry

     total magnetization       =     5.00 Bohr mag/cell
     absolute magnetization    =     5.02 Bohr mag/cell

     iteration #  2     ecut=    50.00 Ry     beta= 0.70
     Davidson diagonalization with overlap
     ethr =  2.23E-03,  avg # of iterations =  1.0

     negative rho (up, down):  4.320E-02 9.728E-02

     total cpu time spent up to now is      729.4 secs

     WARNING: integrated charge=    15.00158018, expected=    15.00000000

     total energy              =    -189.72958367 Ry
     estimated scf accuracy    <       0.02686441 Ry

     total magnetization       =     5.00 Bohr mag/cell
     absolute magnetization    =     5.02 Bohr mag/cell

     iteration #  3     ecut=    50.00 Ry     beta= 0.70
     Davidson diagonalization with overlap
     ethr =  1.79E-04,  avg # of iterations =  1.0

     negative rho (up, down):  4.017E-02 1.003E-01

     total cpu time spent up to now is     1059.2 secs

     WARNING: integrated charge=    15.00339068, expected=    15.00000000

     total energy              =    -189.73149033 Ry
     estimated scf accuracy    <       0.00049885 Ry

     total magnetization       =     5.00 Bohr mag/cell
     absolute magnetization    =     5.02 Bohr mag/cell

     iteration #  4     ecut=    50.00 Ry     beta= 0.70
     Davidson diagonalization with overlap
     ethr =  3.33E-06,  avg # of iterations =  5.5

     negative rho (up, down):  4.004E-02 1.003E-01

     total cpu time spent up to now is     1393.8 secs

     WARNING: integrated charge=    15.00265078, expected=    15.00000000

     total energy              =    -189.73130922 Ry
     estimated scf accuracy    <       0.00001089 Ry

     total magnetization       =     5.00 Bohr mag/cell
     absolute magnetization    =     5.02 Bohr mag/cell

     iteration #  5     ecut=    50.00 Ry     beta= 0.70
     Davidson diagonalization with overlap
     ethr =  7.26E-08,  avg # of iterations =  4.0

     negative rho (up, down):  4.000E-02 1.003E-01

     total cpu time spent up to now is     1701.0 secs

     WARNING: integrated charge=    15.00259073, expected=    15.00000000

     total energy              =    -189.73137407 Ry
     estimated scf accuracy    <       0.00000215 Ry

     total magnetization       =     5.00 Bohr mag/cell
     absolute magnetization    =     5.03 Bohr mag/cell

     iteration #  6     ecut=    50.00 Ry     beta= 0.70
     Davidson diagonalization with overlap
     ethr =  1.43E-08,  avg # of iterations =  2.5

     negative rho (up, down):  4.000E-02 1.003E-01

     Magnetic moment per site  (integrated on atomic sphere of radius R)
     atom   1 (R=0.413)  charge= 15.0003  magn=  4.9987

     total cpu time spent up to now is     2023.6 secs

     End of self-consistent calculation

 ------ SPIN UP ------------


          k = 0.0000 0.0000 0.0000 ( 23917 PWs)   bands (ev):

   -85.3609 -47.3920 -47.3918 -47.3917  -6.2095  -6.0144  -6.0144  -6.0142
    -6.0140  -6.0140  -1.1207  -1.1206

 ------ SPIN DOWN ----------


          k = 0.0000 0.0000 0.0000 ( 23917 PWs)   bands (ev):

   -83.4179 -44.8303 -44.8300 -44.8300  -4.4386  -3.0559  -3.0558  -3.0549
    -3.0549  -3.0548  -0.4347  -0.4346

     the Fermi energy is    -3.6184 ev

     WARNING: integrated charge=    15.00250491, expected=    15.00000000

!    total energy              =    -189.73133893 Ry
     estimated scf accuracy    <       0.00000017 Ry
     smearing contrib. (-TS)   =       0.00004019 Ry
     internal energy E=F+TS    =    -189.73137912 Ry

     The total energy is F=E-TS. E is the sum of the following terms:
     one-electron contribution =    -201.39676188 Ry
     hartree contribution      =      95.29607250 Ry
     xc contribution           =     -51.71109306 Ry
     ewald contribution        =     -31.91959669 Ry

     total magnetization       =     5.00 Bohr mag/cell
     absolute magnetization    =     5.03 Bohr mag/cell

     convergence has been achieved in   6 iterations

     Writing all to output data dir ../outdir/rhenium.save/

     init_run     :     13.29s CPU    119.29s WALL (       1 calls)
     electrons    :    174.00s CPU   1905.36s WALL (       1 calls)

     Called by init_run:
     wfcinit      :      2.29s CPU      3.33s WALL (       1 calls)
     potinit      :      0.75s CPU      0.59s WALL (       1 calls)
     hinit0       :      1.66s CPU      1.41s WALL (       1 calls)

     Called by electrons:
     c_bands      :     22.81s CPU     30.71s WALL (       6 calls)
     sum_band     :     70.13s CPU   1257.64s WALL (       6 calls)
     v_of_rho     :      8.07s CPU      8.74s WALL (       7 calls)
     newd         :     80.20s CPU    679.02s WALL (       7 calls)
     mix_rho      :      0.89s CPU     15.57s WALL (       6 calls)

     Called by c_bands:
     init_us_2    :      0.50s CPU      4.17s WALL (      26 calls)
     init_us_2:cp :      0.50s CPU      4.16s WALL (      26 calls)
     regterg      :     21.49s CPU     22.67s WALL (      12 calls)

     Called by *egterg:
     rdiaghg      :      0.18s CPU      0.14s WALL (      44 calls)
     h_psi        :     21.59s CPU     19.24s WALL (      46 calls)
     s_psi        :      0.29s CPU      0.15s WALL (      46 calls)
     g_psi        :      0.05s CPU      0.04s WALL (      32 calls)

     Called by h_psi:
     h_psi:calbec :      0.48s CPU      0.26s WALL (      46 calls)
     vloc_psi     :     20.84s CPU     18.74s WALL (      46 calls)
     add_vuspsi   :      0.22s CPU      0.12s WALL (      46 calls)

     General routines
     calbec       :      0.65s CPU      0.35s WALL (      58 calls)
     fft          :      3.50s CPU      2.37s WALL (     105 calls)
     ffts         :      0.29s CPU      0.18s WALL (       6 calls)
     fftw         :     21.65s CPU     13.68s WALL (     484 calls)

     Parallel routines

     PWSCF        :   3m 7.51s CPU  33m46.07s WALL


   This run was terminated on:  12:40:59  30Jul2025            

=------------------------------------------------------------------------------=
   JOB DONE.
=------------------------------------------------------------------------------=
