
     Program PWSCF v.7.2 starts on 30Jul2025 at 13:12:14 

     This program is part of the open-source Quantum ESPRESSO suite
     for quantum simulation of materials; please cite
         "P. Giannozzi et al., J. Phys.:Condens. Matter 21 395502 (2009);
         "P. Giannozzi et al., J. Phys.:Condens. Matter 29 465901 (2017);
         "P. Giannozzi et al., J. Chem. Phys. 152 154105 (2020);
          URL http://www.quantum-espresso.org", 
     in publications or presentations arising from this work. More details at
     http://www.quantum-espresso.org/quote

     Parallel version (MPI & OpenMP), running on       2 processor cores
     Number of MPI processes:                 1
     Threads/MPI process:                     2

     MPI processes distributed on     1 nodes
     765 MiB available memory on the printing compute node when the environment starts

     Reading input from Re_substrate_relaxed.scf.in

     Current dimensions of program PWSCF are:
     Max number of different atomic species (ntypx) = 10
     Max number of k-points (npk) =  40000
     Max angular momentum in pseudopotentials (lmaxx) =  4

     Subspace diagonalization in iterative solution of the eigenvalue problem:
     a serial algorithm will be used


     G-vector sticks info
     --------------------
     sticks:   dense  smooth     PW     G-vecs:    dense   smooth      PW
     Sum        1135    1135    313               113857   113857   17133

     Using Slab Decomposition



     bravais-lattice index     =            4
     lattice parameter (alat)  =       9.0360  a.u.
     unit-cell volume          =    2382.6030 (a.u.)^3
     number of atoms/cell      =            6
     number of atomic types    =            1
     number of electrons       =        90.00
     number of Kohn-Sham states=           54
     kinetic-energy cutoff     =      50.0000  Ry
     charge density cutoff     =     200.0000  Ry
     scf convergence threshold =      1.0E-06
     mixing beta               =       0.7000
     number of iterations used =            8  plain     mixing
     Exchange-correlation= SLA  PW   PSX  PSC
                           (   1   4  10   8   0   0   0)

     celldm(1)=   9.036000  celldm(2)=   0.000000  celldm(3)=   3.729000
     celldm(4)=   0.000000  celldm(5)=   0.000000  celldm(6)=   0.000000

     crystal axes: (cart. coord. in units of alat)
               a(1) = (   1.000000   0.000000   0.000000 )  
               a(2) = (  -0.500000   0.866025   0.000000 )  
               a(3) = (   0.000000   0.000000   3.729000 )  

     reciprocal axes: (cart. coord. in units 2 pi/alat)
               b(1) = (  1.000000  0.577350 -0.000000 )  
               b(2) = (  0.000000  1.154701  0.000000 )  
               b(3) = (  0.000000 -0.000000  0.268168 )  


     PseudoPot. # 1 for Re read from file:
     ../pseudo/re_pbesol_v1.2.uspp.F.UPF
     MD5 check sum: aaf9138663fa2d46e1797bae542d0e3d
     Pseudo is Ultrasoft + core correction, Zval = 15.0
     Generated by new atomic code, or converted to UPF format
     Using radial grid of  981 points,  8 beta functions with: 
                l(1) =   0
                l(2) =   0
                l(3) =   1
                l(4) =   1
                l(5) =   2
                l(6) =   2
                l(7) =   3
                l(8) =   3
     Q(r) pseudized with  8 coefficients,  rinner =    1.150   1.150   1.150
                                                       1.150   1.150   1.150
                                                       1.150

     atomic species   valence    mass     pseudopotential
        Re            15.00   186.20700     Re( 1.00)

      6 Sym. Ops. (no inversion) found



   Cartesian axes

     site n.     atom                  positions (alat units)
         1           Re  tau(   1) = (   0.3333330   0.0000000   0.0000000  )
         2           Re  tau(   2) = (  -0.1666665   0.2886748   0.0000000  )
         3           Re  tau(   3) = (   0.3333335   0.5773506   0.0000000  )
         4           Re  tau(   4) = (   0.0000000   0.0000000   0.4598000  )
         5           Re  tau(   5) = (   0.5000005   0.2886748   0.4321867  )
         6           Re  tau(   6) = (  -0.0000005   0.5773506   0.4321867  )

     number of k points=     7  Marzari-Vanderbilt smearing, width (Ry)=  0.0200
                       cart. coord. in units 2pi/alat
        k(    1) = (   0.0000000   0.0000000   0.0000000), wk =   0.0555556
        k(    2) = (   0.0000000   0.1924501   0.0000000), wk =   0.3333333
        k(    3) = (   0.0000000   0.3849002   0.0000000), wk =   0.3333333
        k(    4) = (   0.0000000  -0.5773503   0.0000000), wk =   0.1666667
        k(    5) = (   0.1666667   0.2886751   0.0000000), wk =   0.3333333
        k(    6) = (   0.1666667   0.4811252   0.0000000), wk =   0.6666667
        k(    7) = (   0.3333333   0.5773503   0.0000000), wk =   0.1111111

     Dense  grid:   113857 G-vectors     FFT dimensions: (  45,  45, 160)

     Estimated max dynamical RAM per process >       1.15 GB

     Initial potential from superposition of free atoms

     starting charge      86.9998, renormalised to      90.0000

     negative rho (up, down):  8.167E-01 0.000E+00
     Starting wfcs are   78 randomized atomic wfcs

     total cpu time spent up to now is       11.7 secs

     per-process dynamical memory:   199.7 Mb

     Self-consistent Calculation

     iteration #  1     ecut=    50.00 Ry     beta= 0.70
     Davidson diagonalization with overlap
     ethr =  1.00E-02,  avg # of iterations =  2.0

     negative rho (up, down):  8.390E-01 0.000E+00

     total cpu time spent up to now is       22.8 secs

     total energy              =   -1141.37860815 Ry
     estimated scf accuracy    <       1.18731449 Ry

     iteration #  2     ecut=    50.00 Ry     beta= 0.70
     Davidson diagonalization with overlap
     ethr =  1.32E-03,  avg # of iterations =  2.0

     negative rho (up, down):  8.304E-01 0.000E+00

     total cpu time spent up to now is       55.3 secs

     total energy              =   -1141.39580689 Ry
     estimated scf accuracy    <       0.64407408 Ry

     iteration #  3     ecut=    50.00 Ry     beta= 0.70
     Davidson diagonalization with overlap
     ethr =  7.16E-04,  avg # of iterations =  6.3

     negative rho (up, down):  8.271E-01 0.000E+00

     total cpu time spent up to now is       84.3 secs

     total energy              =   -1140.75013988 Ry
     estimated scf accuracy    <      18.08944246 Ry

     iteration #  4     ecut=    50.00 Ry     beta= 0.70
     Davidson diagonalization with overlap
     ethr =  7.16E-04,  avg # of iterations =  6.4

     negative rho (up, down):  8.240E-01 0.000E+00

     total cpu time spent up to now is      157.5 secs

     total energy              =   -1141.49050053 Ry
     estimated scf accuracy    <       3.27289712 Ry

     iteration #  5     ecut=    50.00 Ry     beta= 0.70
     Davidson diagonalization with overlap
     ethr =  7.16E-04,  avg # of iterations =  2.3

     negative rho (up, down):  8.224E-01 0.000E+00

     total cpu time spent up to now is      185.7 secs

     total energy              =   -1141.69306336 Ry
     estimated scf accuracy    <       0.02021588 Ry

     iteration #  6     ecut=    50.00 Ry     beta= 0.70
     Davidson diagonalization with overlap
     ethr =  2.25E-05,  avg # of iterations = 10.0

     negative rho (up, down):  8.211E-01 0.000E+00

     total cpu time spent up to now is      204.9 secs

     total energy              =   -1141.70227474 Ry
     estimated scf accuracy    <       0.00443755 Ry

     iteration #  7     ecut=    50.00 Ry     beta= 0.70
     Davidson diagonalization with overlap
     ethr =  4.93E-06,  avg # of iterations =  3.3

     negative rho (up, down):  8.201E-01 0.000E+00

     total cpu time spent up to now is      233.6 secs

     total energy              =   -1141.70275464 Ry
     estimated scf accuracy    <       0.00106424 Ry

     iteration #  8     ecut=    50.00 Ry     beta= 0.70
     Davidson diagonalization with overlap
     ethr =  1.18E-06,  avg # of iterations =  3.4

     negative rho (up, down):  8.201E-01 0.000E+00

     total cpu time spent up to now is      254.2 secs

     total energy              =   -1141.70289586 Ry
     estimated scf accuracy    <       0.00003131 Ry

     iteration #  9     ecut=    50.00 Ry     beta= 0.70
