
     Program PWSCF v.7.2 starts on 30Jul2025 at 13:24:31 

     This program is part of the open-source Quantum ESPRESSO suite
     for quantum simulation of materials; please cite
         "P. Giannozzi et al., J. Phys.:Condens. Matter 21 395502 (2009);
         "P. Giannozzi et al., J. Phys.:Condens. Matter 29 465901 (2017);
         "P. Giannozzi et al., J. Chem. Phys. 152 154105 (2020);
          URL http://www.quantum-espresso.org", 
     in publications or presentations arising from this work. More details at
     http://www.quantum-espresso.org/quote

     Parallel version (MPI & OpenMP), running on       2 processor cores
     Number of MPI processes:                 1
     Threads/MPI process:                     2

     MPI processes distributed on     1 nodes
     853 MiB available memory on the printing compute node when the environment starts

     Reading input from Re_substrate.scf.in

     Current dimensions of program PWSCF are:
     Max number of different atomic species (ntypx) = 10
     Max number of k-points (npk) =  40000
     Max angular momentum in pseudopotentials (lmaxx) =  4

     Subspace diagonalization in iterative solution of the eigenvalue problem:
     a serial algorithm will be used


     G-vector sticks info
     --------------------
     sticks:   dense  smooth     PW     G-vecs:    dense   smooth      PW
     Sum         379     379    121                37969    37969    6613

     Using Slab Decomposition



     bravais-lattice index     =            4
     lattice parameter (alat)  =       5.2170  a.u.
     unit-cell volume          =     794.2522 (a.u.)^3
     number of atoms/cell      =            2
     number of atomic types    =            1
     number of electrons       =        30.00
     number of Kohn-Sham states=           19
     kinetic-energy cutoff     =      50.0000  Ry
     charge density cutoff     =     200.0000  Ry
     scf convergence threshold =      1.0E-06
     mixing beta               =       0.7000
     number of iterations used =            8  plain     mixing
     Exchange-correlation= SLA  PW   PSX  PSC
                           (   1   4  10   8   0   0   0)

     celldm(1)=   5.217000  celldm(2)=   0.000000  celldm(3)=   6.459000
     celldm(4)=   0.000000  celldm(5)=   0.000000  celldm(6)=   0.000000

     crystal axes: (cart. coord. in units of alat)
               a(1) = (   1.000000   0.000000   0.000000 )  
               a(2) = (  -0.500000   0.866025   0.000000 )  
               a(3) = (   0.000000   0.000000   6.459000 )  

     reciprocal axes: (cart. coord. in units 2 pi/alat)
               b(1) = (  1.000000  0.577350 -0.000000 )  
               b(2) = (  0.000000  1.154701  0.000000 )  
               b(3) = (  0.000000 -0.000000  0.154823 )  


     PseudoPot. # 1 for Re read from file:
     ../pseudo/re_pbesol_v1.2.uspp.F.UPF
     MD5 check sum: aaf9138663fa2d46e1797bae542d0e3d
     Pseudo is Ultrasoft + core correction, Zval = 15.0
     Generated by new atomic code, or converted to UPF format
     Using radial grid of  981 points,  8 beta functions with: 
                l(1) =   0
                l(2) =   0
                l(3) =   1
                l(4) =   1
                l(5) =   2
                l(6) =   2
                l(7) =   3
                l(8) =   3
     Q(r) pseudized with  8 coefficients,  rinner =    1.150   1.150   1.150
                                                       1.150   1.150   1.150
                                                       1.150

     atomic species   valence    mass     pseudopotential
        Re            15.00   186.20700     Re( 1.00)

      6 Sym. Ops. (no inversion) found



   Cartesian axes

     site n.     atom                  positions (alat units)
         1           Re  tau(   1) = (   0.0000000   0.0000000   0.0000000  )
         2           Re  tau(   2) = (  -0.0000005   0.5773506   0.8073750  )

     number of k points=     7  Marzari-Vanderbilt smearing, width (Ry)=  0.0200
                       cart. coord. in units 2pi/alat
        k(    1) = (   0.0000000   0.0000000   0.0000000), wk =   0.0555556
        k(    2) = (   0.0000000   0.1924501   0.0000000), wk =   0.3333333
        k(    3) = (   0.0000000   0.3849002   0.0000000), wk =   0.3333333
        k(    4) = (   0.0000000  -0.5773503   0.0000000), wk =   0.1666667
        k(    5) = (   0.1666667   0.2886751   0.0000000), wk =   0.3333333
        k(    6) = (   0.1666667   0.4811252   0.0000000), wk =   0.6666667
        k(    7) = (   0.3333333   0.5773503   0.0000000), wk =   0.1111111

     Dense  grid:    37969 G-vectors     FFT dimensions: (  24,  24, 160)

     Estimated max dynamical RAM per process >     363.18 MB

     Initial potential from superposition of free atoms

     starting charge      28.9999, renormalised to      30.0000

     negative rho (up, down):  2.748E-01 0.000E+00
     Starting wfcs are   26 randomized atomic wfcs

     total cpu time spent up to now is        3.0 secs

     per-process dynamical memory:    47.4 Mb

     Self-consistent Calculation

     iteration #  1     ecut=    50.00 Ry     beta= 0.70
     Davidson diagonalization with overlap
     ethr =  1.00E-02,  avg # of iterations =  2.0

     negative rho (up, down):  2.801E-01 0.000E+00

     total cpu time spent up to now is        7.8 secs

     total energy              =    -380.43881194 Ry
     estimated scf accuracy    <       0.42660380 Ry

     iteration #  2     ecut=    50.00 Ry     beta= 0.70
     Davidson diagonalization with overlap
     ethr =  1.42E-03,  avg # of iterations =  2.1

     negative rho (up, down):  2.758E-01 0.000E+00

     total cpu time spent up to now is       12.7 secs

     total energy              =    -380.53857270 Ry
     estimated scf accuracy    <       0.05690783 Ry

     iteration #  3     ecut=    50.00 Ry     beta= 0.70
     Davidson diagonalization with overlap
     ethr =  1.90E-04,  avg # of iterations =  2.4

     negative rho (up, down):  2.760E-01 0.000E+00

     total cpu time spent up to now is       17.6 secs

     total energy              =    -380.54258012 Ry
     estimated scf accuracy    <       0.07408586 Ry

     iteration #  4     ecut=    50.00 Ry     beta= 0.70
     Davidson diagonalization with overlap
     ethr =  1.90E-04,  avg # of iterations =  2.0

     negative rho (up, down):  2.759E-01 0.000E+00

     total cpu time spent up to now is       22.3 secs

     total energy              =    -380.54886745 Ry
     estimated scf accuracy    <       0.07043220 Ry

     iteration #  5     ecut=    50.00 Ry     beta= 0.70
     Davidson diagonalization with overlap
     ethr =  1.90E-04,  avg # of iterations =  1.0

     negative rho (up, down):  2.754E-01 0.000E+00

     total cpu time spent up to now is       26.1 secs

     total energy              =    -380.55283949 Ry
     estimated scf accuracy    <       0.05203997 Ry

     iteration #  6     ecut=    50.00 Ry     beta= 0.70
     Davidson diagonalization with overlap
     ethr =  1.73E-04,  avg # of iterations =  1.0

     negative rho (up, down):  2.753E-01 0.000E+00

     total cpu time spent up to now is       29.9 secs

     total energy              =    -380.55502454 Ry
     estimated scf accuracy    <       0.00005282 Ry

     iteration #  7     ecut=    50.00 Ry     beta= 0.70
     Davidson diagonalization with overlap
     ethr =  1.76E-07,  avg # of iterations =  5.3

     negative rho (up, down):  2.753E-01 0.000E+00

     total cpu time spent up to now is       36.4 secs

     total energy              =    -380.55507293 Ry
     estimated scf accuracy    <       0.00004666 Ry

     iteration #  8     ecut=    50.00 Ry     beta= 0.70
     Davidson diagonalization with overlap
     ethr =  1.56E-07,  avg # of iterations =  2.0

     negative rho (up, down):  2.752E-01 0.000E+00

     total cpu time spent up to now is       87.1 secs

     End of self-consistent calculation

          k = 0.0000 0.0000 0.0000 (  4701 PWs)   bands (ev):

   -77.6495 -77.5888 -39.8681 -39.2483 -38.9316 -38.9316 -38.8444 -38.8444
    -5.9715  -4.0966   0.3087   1.0138   1.0361   1.0361   1.3201   1.3201
     2.8405   3.7864   3.7864

          k = 0.0000 0.1925 0.0000 (  4708 PWs)   bands (ev):

   -77.6279 -77.5743 -39.8127 -39.3042 -39.1092 -39.0601 -38.9942 -38.8886
    -4.9333  -3.0181  -0.1488   0.1325   0.6002   1.3781   1.8613   1.9882
     2.1253   3.5483   3.8398

          k = 0.0000 0.3849 0.0000 (  4738 PWs)   bands (ev):

   -77.5825 -77.5474 -39.7497 -39.6484 -39.4132 -39.2269 -39.1137 -38.9794
    -3.3545  -2.4381  -1.6179   0.2483   1.1371   1.4290   1.9788   3.3564
     4.3208   4.8002   5.1147

          k = 0.0000-0.5774 0.0000 (  4760 PWs)   bands (ev):

   -77.5568 -77.5367 -39.8693 -39.8179 -39.4316 -39.2793 -39.1714 -39.0253
    -3.1312  -2.9620  -2.1810  -0.0832   1.7217   2.4482   2.9340   4.8474
     5.1872   6.5566   6.7545

          k = 0.1667 0.2887 0.0000 (  4738 PWs)   bands (ev):

   -77.5943 -77.5537 -39.7421 -39.4973 -39.3545 -39.1990 -39.0950 -39.0121
    -3.3911  -1.4044  -0.8632  -0.8128   0.0048   0.8746   1.8769   2.6773
     3.6769   4.3379   4.9930

          k = 0.1667 0.4811 0.0000 (  4748 PWs)   bands (ev):

   -77.5569 -77.5366 -39.7726 -39.7244 -39.4416 -39.3218 -39.2147 -39.1373
    -2.4754  -1.9429  -1.6011   0.1790   0.8172   1.4322   1.7410   3.8781
     3.9629   5.0584   7.8786

          k = 0.3333 0.5774 0.0000 (  4758 PWs)   bands (ev):

   -77.5386 -77.5366 -39.6492 -39.6484 -39.5995 -39.4099 -39.2771 -39.2770
    -1.7624  -1.1098  -1.1092   0.4940   0.7714   0.7717   1.0640   3.4159
     4.5021   4.5028   9.4603

     the Fermi energy is     2.0884 ev

!    total energy              =    -380.55507775 Ry
     estimated scf accuracy    <       0.00000077 Ry
     smearing contrib. (-TS)   =       0.00148267 Ry
     internal energy E=F+TS    =    -380.55656041 Ry

     The total energy is F=E-TS. E is the sum of the following terms:
     one-electron contribution =   -1628.02089386 Ry
     hartree contribution      =     810.36764542 Ry
     xc contribution           =    -103.99964527 Ry
     ewald contribution        =     541.09633329 Ry

     convergence has been achieved in   8 iterations

     Writing all to output data dir ../outdir/rhenium.save/

     init_run     :      3.22s CPU      2.82s WALL (       1 calls)
     electrons    :     44.90s CPU     84.08s WALL (       1 calls)

     Called by init_run:
     wfcinit      :      1.94s CPU      1.53s WALL (       1 calls)
     potinit      :      0.08s CPU      0.06s WALL (       1 calls)
     hinit0       :      0.92s CPU      0.90s WALL (       1 calls)

     Called by electrons:
     c_bands      :     30.75s CPU     71.61s WALL (       8 calls)
     sum_band     :     11.53s CPU      9.72s WALL (       8 calls)
     v_of_rho     :      0.37s CPU      0.25s WALL (       9 calls)
     newd         :      2.51s CPU      2.79s WALL (       9 calls)
     mix_rho      :      0.04s CPU      0.05s WALL (       8 calls)

     Called by c_bands:
     init_us_2    :      0.31s CPU      0.28s WALL (     119 calls)
     init_us_2:cp :      0.31s CPU      0.28s WALL (     119 calls)
     cegterg      :     29.60s CPU     70.72s WALL (      56 calls)

     Called by *egterg:
     cdiaghg      :      0.12s CPU      0.10s WALL (     181 calls)
     h_psi        :     29.51s CPU     70.77s WALL (     188 calls)
     s_psi        :      0.38s CPU      0.26s WALL (     188 calls)
     g_psi        :      0.16s CPU      0.12s WALL (     125 calls)

     Called by h_psi:
     h_psi:calbec :      0.66s CPU      0.44s WALL (     188 calls)
     vloc_psi     :     28.34s CPU     69.95s WALL (     188 calls)
     add_vuspsi   :      0.35s CPU      0.25s WALL (     188 calls)

     General routines
     calbec       :      0.91s CPU      0.58s WALL (     244 calls)
     fft          :      0.64s CPU      0.63s WALL (      99 calls)
     ffts         :      0.02s CPU      0.02s WALL (       8 calls)
     fftw         :     34.59s CPU     75.43s WALL (    6632 calls)

     Parallel routines

     PWSCF        :     48.29s CPU   1m27.16s WALL


   This run was terminated on:  13:25:58  30Jul2025            

=------------------------------------------------------------------------------=
   JOB DONE.
=------------------------------------------------------------------------------=
