
     Program PWSCF v.7.2 starts on 27Jul2025 at 16:10:57 

     This program is part of the open-source Quantum ESPRESSO suite
     for quantum simulation of materials; please cite
         "P. Giannozzi et al., J. Phys.:Condens. Matter 21 395502 (2009);
         "P. Giannozzi et al., J. Phys.:Condens. Matter 29 465901 (2017);
         "P. Giannozzi et al., J. Chem. Phys. 152 154105 (2020);
          URL http://www.quantum-espresso.org", 
     in publications or presentations arising from this work. More details at
     http://www.quantum-espresso.org/quote

     Parallel version (MPI & OpenMP), running on       2 processor cores
     Number of MPI processes:                 1
     Threads/MPI process:                     2

     MPI processes distributed on     1 nodes
     192 MiB available memory on the printing compute node when the environment starts

     Reading input from rhenium.scf.in

     Current dimensions of program PWSCF are:
     Max number of different atomic species (ntypx) = 10
     Max number of k-points (npk) =  40000
     Max angular momentum in pseudopotentials (lmaxx) =  4

     Subspace diagonalization in iterative solution of the eigenvalue problem:
     a serial algorithm will be used


     G-vector sticks info
     --------------------
     sticks:   dense  smooth     PW     G-vecs:    dense   smooth      PW
     Sum         451     451    139                12479    12479    2165

     Using Slab Decomposition



     bravais-lattice index     =            4
     lattice parameter (alat)  =       5.2190  a.u.
     unit-cell volume          =     198.8223 (a.u.)^3
     number of atoms/cell      =            2
     number of atomic types    =            1
     number of electrons       =        30.00
     number of Kohn-Sham states=           19
     kinetic-energy cutoff     =      60.0000  Ry
     charge density cutoff     =     240.0000  Ry
     scf convergence threshold =      1.0E-06
     mixing beta               =       0.7000
     number of iterations used =            8  plain     mixing
     Exchange-correlation= SLA  PW   PSX  PSC
                           (   1   4  10   8   0   0   0)

     celldm(1)=   5.219000  celldm(2)=   0.000000  celldm(3)=   1.615000
     celldm(4)=   0.000000  celldm(5)=   0.000000  celldm(6)=   0.000000

     crystal axes: (cart. coord. in units of alat)
               a(1) = (   1.000000   0.000000   0.000000 )  
               a(2) = (  -0.500000   0.866025   0.000000 )  
               a(3) = (   0.000000   0.000000   1.615000 )  

     reciprocal axes: (cart. coord. in units 2 pi/alat)
               b(1) = (  1.000000  0.577350 -0.000000 )  
               b(2) = (  0.000000  1.154701  0.000000 )  
               b(3) = (  0.000000 -0.000000  0.619195 )  


     PseudoPot. # 1 for Re read from file:
     ../pseudo/re_pbesol_v1.2.uspp.F.UPF
     MD5 check sum: aaf9138663fa2d46e1797bae542d0e3d
     Pseudo is Ultrasoft + core correction, Zval = 15.0
     Generated by new atomic code, or converted to UPF format
     Using radial grid of  981 points,  8 beta functions with: 
                l(1) =   0
                l(2) =   0
                l(3) =   1
                l(4) =   1
                l(5) =   2
                l(6) =   2
                l(7) =   3
                l(8) =   3
     Q(r) pseudized with  8 coefficients,  rinner =    1.150   1.150   1.150
                                                       1.150   1.150   1.150
                                                       1.150

     atomic species   valence    mass     pseudopotential
        Re            15.00   186.20700     Re( 1.00)

     24 Sym. Ops., with inversion, found (12 have fractional translation)



   Cartesian axes

     site n.     atom                  positions (alat units)
         1           Re  tau(   1) = (   0.0000000   0.0000000   0.0000000  )
         2           Re  tau(   2) = (  -0.0000005   0.5773506   0.8075000  )

     number of k points=    28  Marzari-Vanderbilt smearing, width (Ry)=  0.0300
                       cart. coord. in units 2pi/alat
        k(    1) = (   0.0000000   0.0000000   0.0000000), wk =   0.0092593
        k(    2) = (   0.0000000   0.0000000   0.1031992), wk =   0.0185185
        k(    3) = (   0.0000000   0.0000000   0.2063983), wk =   0.0185185
        k(    4) = (   0.0000000   0.0000000  -0.3095975), wk =   0.0092593
        k(    5) = (   0.0000000   0.1924501   0.0000000), wk =   0.0555556
        k(    6) = (   0.0000000   0.1924501   0.1031992), wk =   0.1111111
        k(    7) = (   0.0000000   0.1924501   0.2063983), wk =   0.1111111
        k(    8) = (   0.0000000   0.1924501  -0.3095975), wk =   0.0555556
        k(    9) = (   0.0000000   0.3849002   0.0000000), wk =   0.0555556
        k(   10) = (   0.0000000   0.3849002   0.1031992), wk =   0.1111111
        k(   11) = (   0.0000000   0.3849002   0.2063983), wk =   0.1111111
        k(   12) = (   0.0000000   0.3849002  -0.3095975), wk =   0.0555556
        k(   13) = (   0.0000000  -0.5773503   0.0000000), wk =   0.0277778
        k(   14) = (   0.0000000  -0.5773503   0.1031992), wk =   0.0555556
        k(   15) = (   0.0000000  -0.5773503   0.2063983), wk =   0.0555556
        k(   16) = (   0.0000000  -0.5773503  -0.3095975), wk =   0.0277778
        k(   17) = (   0.1666667   0.2886751   0.0000000), wk =   0.0555556
        k(   18) = (   0.1666667   0.2886751   0.1031992), wk =   0.1111111
        k(   19) = (   0.1666667   0.2886751   0.2063983), wk =   0.1111111
        k(   20) = (   0.1666667   0.2886751  -0.3095975), wk =   0.0555556
        k(   21) = (   0.1666667   0.4811252   0.0000000), wk =   0.1111111
        k(   22) = (   0.1666667   0.4811252   0.1031992), wk =   0.2222222
        k(   23) = (   0.1666667   0.4811252   0.2063983), wk =   0.2222222
        k(   24) = (   0.1666667   0.4811252  -0.3095975), wk =   0.1111111
        k(   25) = (   0.3333333   0.5773503   0.0000000), wk =   0.0185185
        k(   26) = (   0.3333333   0.5773503   0.1031992), wk =   0.0370370
        k(   27) = (   0.3333333   0.5773503   0.2063983), wk =   0.0370370
        k(   28) = (   0.3333333   0.5773503  -0.3095975), wk =   0.0185185

     Dense  grid:    12479 G-vectors     FFT dimensions: (  27,  27,  48)

     Estimated max dynamical RAM per process >     131.28 MB

     Initial potential from superposition of free atoms

     starting charge      28.9999, renormalised to      30.0000

     negative rho (up, down):  2.728E-01 0.000E+00
     Starting wfcs are   26 randomized atomic wfcs

     total cpu time spent up to now is        5.3 secs

     per-process dynamical memory:    35.4 Mb

     Self-consistent Calculation

     iteration #  1     ecut=    60.00 Ry     beta= 0.70
     Davidson diagonalization with overlap
     ethr =  1.00E-02,  avg # of iterations =  2.0

     negative rho (up, down):  2.812E-01 0.000E+00

     total cpu time spent up to now is       19.8 secs

     total energy              =    -380.65639578 Ry
     estimated scf accuracy    <       0.36901832 Ry

     iteration #  2     ecut=    60.00 Ry     beta= 0.70
     Davidson diagonalization with overlap
     ethr =  1.23E-03,  avg # of iterations =  2.0

     negative rho (up, down):  2.781E-01 0.000E+00

     total cpu time spent up to now is       34.5 secs

     total energy              =    -380.75193838 Ry
     estimated scf accuracy    <       0.01561173 Ry

     iteration #  3     ecut=    60.00 Ry     beta= 0.70
     Davidson diagonalization with overlap
     ethr =  5.20E-05,  avg # of iterations =  2.1

     negative rho (up, down):  2.771E-01 0.000E+00

     total cpu time spent up to now is       32.2 secs

     total energy              =    -380.75467576 Ry
     estimated scf accuracy    <       0.00015840 Ry

     iteration #  4     ecut=    60.00 Ry     beta= 0.70
     Davidson diagonalization with overlap
     ethr =  5.28E-07,  avg # of iterations =  4.6

     negative rho (up, down):  2.772E-01 0.000E+00

     total cpu time spent up to now is       50.7 secs

     total energy              =    -380.75484274 Ry
     estimated scf accuracy    <       0.00005089 Ry

     iteration #  5     ecut=    60.00 Ry     beta= 0.70
     Davidson diagonalization with overlap
     ethr =  1.70E-07,  avg # of iterations =  2.0

     negative rho (up, down):  2.771E-01 0.000E+00

     total cpu time spent up to now is       51.5 secs

     End of self-consistent calculation

          k = 0.0000 0.0000 0.0000 (  1557 PWs)   bands (ev):

   -55.7182 -55.5962 -18.1609 -17.1092 -17.1092 -16.9343 -16.9343 -16.9141
    14.2743  17.5310  22.5815  22.5815  22.5838  23.4197  23.4197  24.3479
    24.3479  24.7559  27.5236

          k = 0.0000 0.0000 0.1032 (  1569 PWs)   bands (ev):

   -55.7101 -55.6044 -18.0825 -17.0976 -17.0976 -17.0033 -16.9462 -16.9462
    14.6050  17.5400  22.3917  22.4433  22.4434  23.2205  23.2205  23.8922
    24.7885  24.7886  27.5484

          k = 0.0000 0.0000 0.2064 (  1563 PWs)   bands (ev):

   -55.6879 -55.6269 -17.8649 -17.2423 -17.0658 -17.0658 -16.9784 -16.9784
    15.5048  17.3789  21.9708  22.3284  22.3284  22.4431  22.8048  22.8048
    25.7333  25.7334  27.3713

          k = 0.0000 0.0000-0.3096 (  1544 PWs)   bands (ev):

   -55.6575 -55.6575 -17.5589 -17.5589 -17.0221 -17.0221 -17.0221 -17.0221
    16.6361  16.6362  21.7752  21.7752  22.4547  22.4547  22.4547  22.4547
    26.7174  26.7175  26.7175

          k = 0.0000 0.1925 0.0000 (  1577 PWs)   bands (ev):

   -55.6927 -55.5851 -18.0588 -17.3391 -17.1817 -17.1701 -16.9702 -16.9588
    15.3593  18.4614  21.3628  22.1552  22.7008  23.5948  23.6367  23.7648
    23.9424  24.3730  27.9768

          k = 0.0000 0.1925 0.1032 (  1577 PWs)   bands (ev):

   -55.6856 -55.5923 -18.0000 -17.3186 -17.2236 -17.1677 -16.9913 -16.9845
    15.6506  18.5141  21.4387  21.5377  22.4799  23.1644  23.4018  24.0255
    24.5318  24.6906  27.8767

          k = 0.0000 0.1925 0.2064 (  1570 PWs)   bands (ev):

   -55.6660 -55.6121 -17.8379 -17.3911 -17.2486 -17.1294 -17.0688 -17.0236
    16.4608  18.3981  20.8056  21.5469  21.8518  22.9879  23.0432  23.6358
    25.4951  25.7624  27.4315

          k = 0.0000 0.1925-0.3096 (  1572 PWs)   bands (ev):

   -55.6391 -55.6391 -17.6141 -17.6141 -17.1624 -17.1624 -17.0767 -17.0767
    17.5618  17.5618  20.9211  20.9211  22.3095  22.3095  23.2319  23.2319
    26.5660  26.5660  27.0535

          k = 0.0000 0.3849 0.0000 (  1561 PWs)   bands (ev):

   -55.6373 -55.5669 -17.8092 -17.7933 -17.6098 -17.3168 -17.0923 -17.0479
    17.5247  18.7320  19.7749  21.4811  22.6286  22.7501  23.1286  26.2204
    26.2353  26.7886  28.4357

          k = 0.0000 0.3849 0.1032 (  1557 PWs)   bands (ev):

   -55.6326 -55.5716 -17.9148 -17.6931 -17.5988 -17.2992 -17.0963 -17.0663
    17.5128  18.8424  19.9071  21.0887  22.5790  22.8464  23.5313  26.2597
    26.2759  26.5241  28.2167

          k = 0.0000 0.3849 0.2064 (  1573 PWs)   bands (ev):

   -55.6197 -55.5845 -17.9487 -17.7950 -17.4182 -17.2507 -17.1382 -17.1163
    17.6647  18.7817  19.9212  20.8482  22.6911  23.4719  23.6363  25.4853
    26.6789  26.7190  27.7308

          k = 0.0000 0.3849-0.3096 (  1576 PWs)   bands (ev):

   -55.6022 -55.6022 -17.9008 -17.9008 -17.2485 -17.2485 -17.1839 -17.1839
    18.1484  18.1484  20.4056  20.4056  23.2250  23.2250  24.4133  24.4133
    27.1888  27.1888  27.8129

          k = 0.0000-0.5774 0.0000 (  1578 PWs)   bands (ev):

   -55.6037 -55.5636 -18.0167 -17.8168 -17.6234 -17.3811 -17.2198 -17.0886
    18.1849  18.3202  18.9138  22.2253  22.4185  22.7860  23.5648  28.1491
    28.5540  28.6864  30.2405

          k = 0.0000-0.5774 0.1032 (  1560 PWs)   bands (ev):

   -55.6010 -55.5662 -18.0628 -17.8768 -17.5342 -17.3620 -17.1972 -17.1086
    17.8039  18.2921  19.7288  20.9080  22.4972  23.4533  24.4344  27.6685
    28.2914  28.6569  29.6715

          k = 0.0000-0.5774 0.2064 (  1550 PWs)   bands (ev):

   -55.5936 -55.5736 -18.1091 -17.9949 -17.3720 -17.3093 -17.1840 -17.1630
    17.5791  18.3447  19.9028  20.3540  23.2927  23.7537  25.7528  26.1199
    28.3492  28.5687  28.5753

          k = 0.0000-0.5774-0.3096 (  1548 PWs)   bands (ev):

   -55.5836 -55.5836 -18.0865 -18.0865 -17.2408 -17.2407 -17.2366 -17.2366
    17.8725  17.8725  20.0708  20.0708  24.5466  24.5466  25.0614  25.0615
    28.4621  28.4622  28.9426

          k = 0.1667 0.2887 0.0000 (  1567 PWs)   bands (ev):

   -55.6520 -55.5706 -17.8808 -17.5849 -17.5602 -17.2607 -17.0949 -17.0498
    17.1586  19.6429  20.3763  20.4306  22.2865  22.4068  23.7640  24.5075
    25.7422  26.6572  28.0568

          k = 0.1667 0.2887 0.1032 (  1565 PWs)   bands (ev):

   -55.6466 -55.5761 -17.8859 -17.5851 -17.5184 -17.2833 -17.1105 -17.0491
    17.3233  19.7781  20.1471  20.4727  22.1743  22.5609  23.3934  24.6615
    26.0717  26.4265  27.9668

          k = 0.1667 0.2887 0.2064 (  1566 PWs)   bands (ev):

   -55.6317 -55.5910 -17.8614 -17.6705 -17.3808 -17.2917 -17.1475 -17.0826
    17.8020  19.3956  20.1990  20.7600  21.7743  22.4315  23.3100  24.7576
    26.4677  26.6025  27.6379

          k = 0.1667 0.2887-0.3096 (  1564 PWs)   bands (ev):

   -55.6114 -55.6114 -17.7817 -17.7817 -17.2844 -17.2844 -17.1517 -17.1517
    18.5376  18.5376  20.7328  20.7328  21.7524  21.7524  24.0746  24.0746
    27.0949  27.0949  27.8156

          k = 0.1667 0.4811 0.0000 (  1551 PWs)   bands (ev):

   -55.6039 -55.5634 -17.8993 -17.7347 -17.6268 -17.4651 -17.2220 -17.2159
    18.9347  19.1357  19.1970  21.2742  21.9034  22.8171  23.4503  26.4774
    27.8720  28.0433  29.8160

          k = 0.1667 0.4811 0.1032 (  1558 PWs)   bands (ev):

   -55.6012 -55.5661 -17.9445 -17.8038 -17.5572 -17.4321 -17.2609 -17.1611
    18.4788  19.3416  19.7342  20.7870  22.0194  22.9493  23.5628  26.4022
    27.2395  28.2304  29.9418

          k = 0.1667 0.4811 0.2064 (  1551 PWs)   bands (ev):

   -55.5937 -55.5735 -17.9968 -17.9070 -17.4992 -17.3647 -17.2579 -17.1250
    18.3224  19.2375  19.9524  21.1255  21.7021  23.0547  23.9808  25.4382
    27.0364  28.6997  29.9692

          k = 0.1667 0.4811-0.3096 (  1550 PWs)   bands (ev):

   -55.5836 -55.5836 -17.9847 -17.9847 -17.4272 -17.4272 -17.1612 -17.1612
    18.6105  18.6105  20.6219  20.6219  22.5296  22.5296  24.4334  24.4334
    28.0436  28.0436  30.2589

          k = 0.3333 0.5774 0.0000 (  1560 PWs)   bands (ev):

   -55.5744 -55.5743 -17.8361 -17.6569 -17.6569 -17.4565 -17.4065 -17.4065
    18.9366  20.1251  20.1251  20.7962  22.0321  22.0321  24.1227  27.1990
    27.1991  27.6765  30.5982

          k = 0.3333 0.5774 0.1032 (  1545 PWs)   bands (ev):

   -55.5743 -55.5743 -17.8114 -17.7501 -17.7501 -17.4827 -17.3095 -17.3095
    19.1635  19.9915  19.9915  20.8106  22.0117  22.0117  24.0517  26.7474
    27.3491  27.3492  30.9547

          k = 0.3333 0.5774 0.2064 (  1554 PWs)   bands (ev):

   -55.5743 -55.5743 -17.8642 -17.8642 -17.7435 -17.5537 -17.1878 -17.1878
    19.7315  19.7315  19.7605  20.7676  22.0059  22.0059  23.9611  25.2235
    27.4984  27.4985  32.1471

          k = 0.3333 0.5774-0.3096 (  1566 PWs)   bands (ev):

   -55.5743 -55.5743 -17.9080 -17.9080 -17.6495 -17.6495 -17.1404 -17.1403
    19.6064  19.6064  20.4275  20.4275  22.0149  22.0149  24.2187  24.2187
    27.5163  27.5163  33.6873

     the Fermi energy is    24.1031 ev

!    total energy              =    -380.75485415 Ry
     estimated scf accuracy    <       0.00000005 Ry
     smearing contrib. (-TS)   =       0.00358862 Ry
     internal energy E=F+TS    =    -380.75844277 Ry

     The total energy is F=E-TS. E is the sum of the following terms:
     one-electron contribution =     -32.58287854 Ry
     hartree contribution      =      36.77179133 Ry
     xc contribution           =    -104.39516690 Ry
     ewald contribution        =    -280.55218865 Ry

     convergence has been achieved in   5 iterations

     Writing all to output data dir ../outdir/rhenium.save/

     init_run     :      5.78s CPU      5.04s WALL (       1 calls)
     electrons    :     86.56s CPU     46.21s WALL (       1 calls)

     Called by init_run:
     wfcinit      :      5.02s CPU      4.22s WALL (       1 calls)
     potinit      :      0.02s CPU      0.02s WALL (       1 calls)
     hinit0       :      0.63s CPU      0.62s WALL (       1 calls)

     Called by electrons:
     c_bands      :     67.76s CPU     29.98s WALL (       5 calls)
     sum_band     :     18.17s CPU     15.49s WALL (       5 calls)
     v_of_rho     :      0.14s CPU      0.11s WALL (       6 calls)
     newd         :      0.60s CPU      0.79s WALL (       6 calls)
     mix_rho      :      0.01s CPU      0.01s WALL (       5 calls)

     Called by c_bands:
     init_us_2    :      0.26s CPU      0.23s WALL (     308 calls)
     init_us_2:cp :      0.25s CPU      0.23s WALL (     308 calls)
     cegterg      :     66.70s CPU     29.12s WALL (     140 calls)

     Called by *egterg:
     cdiaghg      :      0.29s CPU      0.26s WALL (     496 calls)
     h_psi        :     69.04s CPU     31.04s WALL (     524 calls)
     s_psi        :      0.40s CPU      0.31s WALL (     524 calls)
     g_psi        :      0.23s CPU      0.21s WALL (     356 calls)

     Called by h_psi:
     h_psi:calbec :      1.32s CPU      0.73s WALL (     524 calls)
     vloc_psi     :     67.04s CPU     29.73s WALL (     524 calls)
     add_vuspsi   :      0.31s CPU      0.27s WALL (     524 calls)

     General routines
     calbec       :      1.70s CPU      0.94s WALL (     664 calls)
     fft          :      0.36s CPU      0.33s WALL (      66 calls)
     ffts         :      0.01s CPU      0.01s WALL (       5 calls)
     fftw         :     81.85s CPU     42.64s WALL (   18644 calls)

     Parallel routines

     PWSCF        :   1m32.59s CPU     51.56s WALL


   This run was terminated on:  16:11:48  27Jul2025            

=------------------------------------------------------------------------------=
   JOB DONE.
=------------------------------------------------------------------------------=
