
     Program PWSCF v.7.2 starts on 21Jul2025 at 11:55: 2 

     This program is part of the open-source Quantum ESPRESSO suite
     for quantum simulation of materials; please cite
         "P. Giannozzi et al., J. Phys.:Condens. Matter 21 395502 (2009);
         "P. Giannozzi et al., J. Phys.:Condens. Matter 29 465901 (2017);
         "P. Giannozzi et al., J. Chem. Phys. 152 154105 (2020);
          URL http://www.quantum-espresso.org", 
     in publications or presentations arising from this work. More details at
     http://www.quantum-espresso.org/quote

     Parallel version (MPI & OpenMP), running on       2 processor cores
     Number of MPI processes:                 1
     Threads/MPI process:                     2

     MPI processes distributed on     1 nodes
     499 MiB available memory on the printing compute node when the environment starts

     Reading input from ../stress/alpha_9.54.in

     Current dimensions of program PWSCF are:
     Max number of different atomic species (ntypx) = 10
     Max number of k-points (npk) =  40000
     Max angular momentum in pseudopotentials (lmaxx) =  4
     file B.pbesol-n-rrkjus_psl.1.0.0.UPF: wavefunction(s)  2S renormalized

     IMPORTANT: XC functional enforced from input :
     Exchange-correlation= PBESOL
                           (   1   4  10   8   0   0   0)
     Any further DFT definition will be discarded
     Please, verify this is what you really want


     Subspace diagonalization in iterative solution of the eigenvalue problem:
     a serial algorithm will be used


     G-vector sticks info
     --------------------
     sticks:   dense  smooth     PW     G-vecs:    dense   smooth      PW
     Sum        1765    1765    499               118997   118997   17423

     Using Slab Decomposition



     bravais-lattice index     =            4
     lattice parameter (alat)  =       9.5400  a.u.
     unit-cell volume          =    1503.8543 (a.u.)^3
     number of atoms/cell      =            8
     number of atomic types    =            1
     number of electrons       =        24.00
     number of Kohn-Sham states=           16
     kinetic-energy cutoff     =      70.0000  Ry
     charge density cutoff     =     280.0000  Ry
     scf convergence threshold =      1.0E-06
     mixing beta               =       0.7000
     number of iterations used =            8  plain     mixing
     Exchange-correlation= PBESOL
                           (   1   4  10   8   0   0   0)

     celldm(1)=   9.540000  celldm(2)=   0.000000  celldm(3)=   2.000000
     celldm(4)=   0.000000  celldm(5)=   0.000000  celldm(6)=   0.000000

     crystal axes: (cart. coord. in units of alat)
               a(1) = (   1.000000   0.000000   0.000000 )  
               a(2) = (  -0.500000   0.866025   0.000000 )  
               a(3) = (   0.000000   0.000000   2.000000 )  

     reciprocal axes: (cart. coord. in units 2 pi/alat)
               b(1) = (  1.000000  0.577350 -0.000000 )  
               b(2) = (  0.000000  1.154701  0.000000 )  
               b(3) = (  0.000000 -0.000000  0.500000 )  


     PseudoPot. # 1 for B  read from file:
     ../../pseudo/B.pbesol-n-rrkjus_psl.1.0.0.UPF
     MD5 check sum: a3839a09b1a4e02f2a06a66adc9253fc
     Pseudo is Ultrasoft + core correction, Zval =  3.0
     Generated using &quot;atomic&quot; code by A. Dal Corso  v.6.3MaX
     Using radial grid of 1059 points,  4 beta functions with: 
                l(1) =   0
                l(2) =   0
                l(3) =   1
                l(4) =   1
     Q(r) pseudized with 0 coefficients 


     atomic species   valence    mass     pseudopotential
        B              3.00    10.81100     B ( 1.00)

     24 Sym. Ops., with inversion, found



   Cartesian axes

     site n.     atom                  positions (alat units)
         1           B   tau(   1) = (   0.3333330   0.0000000   0.0000000  )
         2           B   tau(   2) = (   0.6666670   0.0000000   0.0000000  )
         3           B   tau(   3) = (  -0.1666665   0.2886748   0.0000000  )
         4           B   tau(   4) = (   0.1666665   0.2886748   0.0000000  )
         5           B   tau(   5) = (   0.5000005   0.2886748   0.0000000  )
         6           B   tau(   6) = (  -0.3333335   0.5773506   0.0000000  )
         7           B   tau(   7) = (  -0.0000005   0.5773506   0.0000000  )
         8           B   tau(   8) = (   0.3333335   0.5773506   0.0000000  )

     number of k points=    12  Marzari-Vanderbilt smearing, width (Ry)=  0.0350
                       cart. coord. in units 2pi/alat
        k(    1) = (   0.0000000   0.0000000   0.0000000), wk =   0.0246914
        k(    2) = (   0.0000000   0.1283001   0.0000000), wk =   0.1481481
        k(    3) = (   0.0000000   0.2566001   0.0000000), wk =   0.1481481
        k(    4) = (   0.0000000   0.3849002   0.0000000), wk =   0.1481481
        k(    5) = (   0.0000000   0.5132002   0.0000000), wk =   0.1481481
        k(    6) = (   0.1111111   0.1924501   0.0000000), wk =   0.1481481
        k(    7) = (   0.1111111   0.3207501   0.0000000), wk =   0.2962963
        k(    8) = (   0.1111111   0.4490502   0.0000000), wk =   0.2962963
        k(    9) = (   0.1111111   0.5773503   0.0000000), wk =   0.1481481
        k(   10) = (   0.2222222   0.3849002   0.0000000), wk =   0.1481481
        k(   11) = (   0.2222222   0.5132002   0.0000000), wk =   0.2962963
        k(   12) = (   0.3333333   0.5773503   0.0000000), wk =   0.0493827

     Dense  grid:   118997 G-vectors     FFT dimensions: (  54,  54, 108)

     Estimated max dynamical RAM per process >     225.82 MB

     Initial potential from superposition of free atoms

     starting charge      23.9977, renormalised to      24.0000

     negative rho (up, down):  3.878E-05 0.000E+00
     Starting wfcs are   32 randomized atomic wfcs

     total cpu time spent up to now is        6.2 secs

     per-process dynamical memory:   131.0 Mb

     Self-consistent Calculation

     iteration #  1     ecut=    70.00 Ry     beta= 0.70
     Davidson diagonalization with overlap
     ethr =  1.00E-02,  avg # of iterations =  2.0

     negative rho (up, down):  3.654E-04 0.000E+00

     total cpu time spent up to now is       18.5 secs

     total energy              =     -49.86513358 Ry
     estimated scf accuracy    <       0.71360489 Ry

     iteration #  2     ecut=    70.00 Ry     beta= 0.70
     Davidson diagonalization with overlap
     ethr =  2.97E-03,  avg # of iterations =  2.0

     negative rho (up, down):  6.515E-04 0.000E+00

     total cpu time spent up to now is       77.3 secs

     total energy              =     -49.98156640 Ry
     estimated scf accuracy    <       0.01878562 Ry

     iteration #  3     ecut=    70.00 Ry     beta= 0.70
     Davidson diagonalization with overlap
     ethr =  7.83E-05,  avg # of iterations =  5.2

     negative rho (up, down):  7.538E-04 0.000E+00

     total cpu time spent up to now is       94.2 secs

     total energy              =     -49.98641024 Ry
     estimated scf accuracy    <       0.00486114 Ry

     iteration #  4     ecut=    70.00 Ry     beta= 0.70
     Davidson diagonalization with overlap
     ethr =  2.03E-05,  avg # of iterations =  3.3

     negative rho (up, down):  8.625E-04 0.000E+00

     total cpu time spent up to now is       97.0 secs

     total energy              =     -49.98747010 Ry
     estimated scf accuracy    <       0.00016801 Ry

     iteration #  5     ecut=    70.00 Ry     beta= 0.70
     Davidson diagonalization with overlap
     ethr =  7.00E-07,  avg # of iterations =  4.8

     negative rho (up, down):  8.719E-04 0.000E+00

     total cpu time spent up to now is      114.1 secs

     total energy              =     -49.98749025 Ry
     estimated scf accuracy    <       0.00001641 Ry

     iteration #  6     ecut=    70.00 Ry     beta= 0.70
     Davidson diagonalization with overlap
     ethr =  6.84E-08,  avg # of iterations =  2.6

     negative rho (up, down):  8.721E-04 0.000E+00

     total cpu time spent up to now is      116.6 secs

     End of self-consistent calculation

          k = 0.0000 0.0000 0.0000 ( 14889 PWs)   bands (ev):

   -16.2128 -12.0838 -12.0052 -12.0052  -9.7383  -9.7383  -7.6234  -7.0755
    -2.0792  -2.0792  -0.6185  -0.1035  -0.1035   0.2088   0.2089   0.5484

          k = 0.0000 0.1283 0.0000 ( 14904 PWs)   bands (ev):

   -16.1573 -12.7553 -12.0559 -11.3769  -9.8101  -9.5977  -7.3832  -6.9898
    -2.6883  -2.5972  -1.5791  -0.5518   0.0562   0.7844   0.8710   1.1646

          k = 0.0000 0.2566 0.0000 ( 14906 PWs)   bands (ev):

   -15.9939 -13.4407 -12.1684 -10.9616  -9.7247  -9.2273  -6.9074  -6.7360
    -3.7323  -3.4417  -2.7425  -1.0575  -0.1636   1.8427   2.0651   2.1700

          k = 0.0000 0.3849 0.0000 ( 14884 PWs)   bands (ev):

   -15.7371 -14.0602 -12.2766 -10.9367  -9.2091  -8.7439  -6.6671  -6.3287
    -4.7005  -3.9758  -3.7838  -1.4070  -0.3883   2.8892   3.2599   3.3404

          k = 0.0000 0.5132 0.0000 ( 14860 PWs)   bands (ev):

   -15.4547 -14.5286 -12.3391 -10.9999  -8.6496  -8.3447  -6.8694  -5.8513
    -5.3454  -4.5841  -4.0384  -1.5835  -0.5164   3.4849   3.7988   3.9134

          k = 0.1111 0.1925 0.0000 ( 14883 PWs)   bands (ev):

   -16.0477 -13.2517 -12.1817 -10.9477  -9.8786  -9.3041  -7.0341  -6.8199
    -3.4735  -3.1912  -2.3861  -1.2145   0.4160   1.2975   1.4019   1.8747

          k = 0.1111 0.3208 0.0000 ( 14881 PWs)   bands (ev):

   -15.8354 -13.8308 -12.3666 -10.6489  -9.6868  -8.8248  -6.7277  -6.4871
    -4.3074  -3.8603  -3.3473  -1.7737   0.4173   2.1060   2.1853   3.0284

          k = 0.1111 0.4491 0.0000 ( 14872 PWs)   bands (ev):

   -15.5483 -14.3595 -12.5037 -10.6489  -9.1177  -8.3511  -6.9193  -6.0219
    -4.9017  -4.2398  -4.1161  -2.0879   0.2785   2.9117   3.2621   3.5800

          k = 0.1111 0.5774 0.0000 ( 14882 PWs)   bands (ev):

   -15.3475 -14.6440 -12.5526 -10.6737  -8.7420  -8.1316  -7.2221  -5.6664
    -5.1642  -4.7440  -4.0761  -2.1896   0.2217   3.3430   3.4196   4.2509

          k = 0.2222 0.3849 0.0000 ( 14865 PWs)   bands (ev):

   -15.5838 -14.2690 -12.6460 -10.1567  -9.6317  -8.3328  -6.9856  -6.0861
    -4.4939  -4.2900  -4.0102  -2.4631   1.2238   2.1750   2.5285   3.4886

          k = 0.2222 0.5132 0.0000 ( 14857 PWs)   bands (ev):

   -15.2867 -14.6683 -12.8112 -10.0132  -9.1878  -8.0029  -7.5813  -5.5950
    -4.6603  -4.6594  -4.2586  -2.7992   1.4181   2.8777   3.0302   3.4632

          k = 0.3333 0.5774 0.0000 ( 14817 PWs)   bands (ev):

   -14.9824 -14.9823 -12.9357  -9.4235  -9.4234  -7.9997  -7.8766  -5.1120
    -5.1119  -4.4064  -4.4063  -3.0752   2.5267   2.5267   3.0416   3.0416

     the Fermi energy is    -0.5625 ev

!    total energy              =     -49.98749483 Ry
     estimated scf accuracy    <       0.00000084 Ry
     smearing contrib. (-TS)   =       0.00015885 Ry
     internal energy E=F+TS    =     -49.98765368 Ry

     The total energy is F=E-TS. E is the sum of the following terms:
     one-electron contribution =    -179.80342217 Ry
     hartree contribution      =      94.52178629 Ry
     xc contribution           =     -23.27415555 Ry
     ewald contribution        =      58.56813775 Ry

     convergence has been achieved in   6 iterations


     Computing stress (Cartesian axis) and pressure


     negative rho (up, down):  8.721E-04 0.000E+00
          total   stress  (Ry/bohr**3)                   (kbar)     P=        8.29
   0.00008495  -0.00000000   0.00000000           12.50       -0.00        0.00
  -0.00000000   0.00008495   0.00000000           -0.00       12.50        0.00
   0.00000000   0.00000000  -0.00000090            0.00        0.00       -0.13


     Writing all to output data dir ../../outdir/borophene.save/

     init_run     :      8.74s CPU      6.15s WALL (       1 calls)
     electrons    :    126.85s CPU    110.41s WALL (       1 calls)
     stress       :      7.92s CPU      5.55s WALL (       1 calls)

     Called by init_run:
     wfcinit      :      7.71s CPU      5.20s WALL (       1 calls)
     potinit      :      0.19s CPU      0.15s WALL (       1 calls)
     hinit0       :      0.70s CPU      0.63s WALL (       1 calls)

     Called by electrons:
     c_bands      :    103.35s CPU     93.39s WALL (       6 calls)
     sum_band     :     21.54s CPU     15.50s WALL (       6 calls)
     v_of_rho     :      1.38s CPU      0.89s WALL (       7 calls)
     newd         :      0.59s CPU      0.65s WALL (       7 calls)
     mix_rho      :      0.18s CPU      0.15s WALL (       6 calls)

     Called by c_bands:
     init_us_2    :      1.05s CPU      0.95s WALL (     168 calls)
     init_us_2:cp :      1.05s CPU      0.95s WALL (     168 calls)
     cegterg      :    101.44s CPU     45.05s WALL (      72 calls)

     Called by *egterg:
     cdiaghg      :      0.19s CPU      0.12s WALL (     311 calls)
     h_psi        :     97.95s CPU     42.92s WALL (     323 calls)
     s_psi        :      2.51s CPU      1.53s WALL (     323 calls)
     g_psi        :      0.36s CPU      0.32s WALL (     239 calls)

     Called by h_psi:
     h_psi:calbec :      3.61s CPU      2.45s WALL (     323 calls)
     vloc_psi     :     91.53s CPU     38.74s WALL (     323 calls)
     add_vuspsi   :      2.44s CPU      1.33s WALL (     323 calls)

     General routines
     calbec       :      4.90s CPU      3.36s WALL (     407 calls)
     fft          :      1.04s CPU      0.86s WALL (      91 calls)
     ffts         :      0.05s CPU      0.04s WALL (       6 calls)
     fftw         :     92.20s CPU     52.86s WALL (    8338 calls)

     Parallel routines

     PWSCF        :   2m23.62s CPU   2m 2.39s WALL


   This run was terminated on:  11:57: 5  21Jul2025            

=------------------------------------------------------------------------------=
   JOB DONE.
=------------------------------------------------------------------------------=
