
     Program PWSCF v.7.2 starts on 21Jul2025 at 11:58:20 

     This program is part of the open-source Quantum ESPRESSO suite
     for quantum simulation of materials; please cite
         "P. Giannozzi et al., J. Phys.:Condens. Matter 21 395502 (2009);
         "P. Giannozzi et al., J. Phys.:Condens. Matter 29 465901 (2017);
         "P. Giannozzi et al., J. Chem. Phys. 152 154105 (2020);
          URL http://www.quantum-espresso.org", 
     in publications or presentations arising from this work. More details at
     http://www.quantum-espresso.org/quote

     Parallel version (MPI & OpenMP), running on       2 processor cores
     Number of MPI processes:                 1
     Threads/MPI process:                     2

     MPI processes distributed on     1 nodes
     472 MiB available memory on the printing compute node when the environment starts

     Reading input from ../stress/alpha_9.58.in

     Current dimensions of program PWSCF are:
     Max number of different atomic species (ntypx) = 10
     Max number of k-points (npk) =  40000
     Max angular momentum in pseudopotentials (lmaxx) =  4
     file B.pbesol-n-rrkjus_psl.1.0.0.UPF: wavefunction(s)  2S renormalized

     IMPORTANT: XC functional enforced from input :
     Exchange-correlation= PBESOL
                           (   1   4  10   8   0   0   0)
     Any further DFT definition will be discarded
     Please, verify this is what you really want


     Subspace diagonalization in iterative solution of the eigenvalue problem:
     a serial algorithm will be used


     G-vector sticks info
     --------------------
     sticks:   dense  smooth     PW     G-vecs:    dense   smooth      PW
     Sum        1777    1777    499               120595   120595   17591

     Using Slab Decomposition



     bravais-lattice index     =            4
     lattice parameter (alat)  =       9.5800  a.u.
     unit-cell volume          =    1522.8501 (a.u.)^3
     number of atoms/cell      =            8
     number of atomic types    =            1
     number of electrons       =        24.00
     number of Kohn-Sham states=           16
     kinetic-energy cutoff     =      70.0000  Ry
     charge density cutoff     =     280.0000  Ry
     scf convergence threshold =      1.0E-06
     mixing beta               =       0.7000
     number of iterations used =            8  plain     mixing
     Exchange-correlation= PBESOL
                           (   1   4  10   8   0   0   0)

     celldm(1)=   9.580000  celldm(2)=   0.000000  celldm(3)=   2.000000
     celldm(4)=   0.000000  celldm(5)=   0.000000  celldm(6)=   0.000000

     crystal axes: (cart. coord. in units of alat)
               a(1) = (   1.000000   0.000000   0.000000 )  
               a(2) = (  -0.500000   0.866025   0.000000 )  
               a(3) = (   0.000000   0.000000   2.000000 )  

     reciprocal axes: (cart. coord. in units 2 pi/alat)
               b(1) = (  1.000000  0.577350 -0.000000 )  
               b(2) = (  0.000000  1.154701  0.000000 )  
               b(3) = (  0.000000 -0.000000  0.500000 )  


     PseudoPot. # 1 for B  read from file:
     ../../pseudo/B.pbesol-n-rrkjus_psl.1.0.0.UPF
     MD5 check sum: a3839a09b1a4e02f2a06a66adc9253fc
     Pseudo is Ultrasoft + core correction, Zval =  3.0
     Generated using &quot;atomic&quot; code by A. Dal Corso  v.6.3MaX
     Using radial grid of 1059 points,  4 beta functions with: 
                l(1) =   0
                l(2) =   0
                l(3) =   1
                l(4) =   1
     Q(r) pseudized with 0 coefficients 


     atomic species   valence    mass     pseudopotential
        B              3.00    10.81100     B ( 1.00)

     24 Sym. Ops., with inversion, found



   Cartesian axes

     site n.     atom                  positions (alat units)
         1           B   tau(   1) = (   0.3333330   0.0000000   0.0000000  )
         2           B   tau(   2) = (   0.6666670   0.0000000   0.0000000  )
         3           B   tau(   3) = (  -0.1666665   0.2886748   0.0000000  )
         4           B   tau(   4) = (   0.1666665   0.2886748   0.0000000  )
         5           B   tau(   5) = (   0.5000005   0.2886748   0.0000000  )
         6           B   tau(   6) = (  -0.3333335   0.5773506   0.0000000  )
         7           B   tau(   7) = (  -0.0000005   0.5773506   0.0000000  )
         8           B   tau(   8) = (   0.3333335   0.5773506   0.0000000  )

     number of k points=    12  Marzari-Vanderbilt smearing, width (Ry)=  0.0350
                       cart. coord. in units 2pi/alat
        k(    1) = (   0.0000000   0.0000000   0.0000000), wk =   0.0246914
        k(    2) = (   0.0000000   0.1283001   0.0000000), wk =   0.1481481
        k(    3) = (   0.0000000   0.2566001   0.0000000), wk =   0.1481481
        k(    4) = (   0.0000000   0.3849002   0.0000000), wk =   0.1481481
        k(    5) = (   0.0000000   0.5132002   0.0000000), wk =   0.1481481
        k(    6) = (   0.1111111   0.1924501   0.0000000), wk =   0.1481481
        k(    7) = (   0.1111111   0.3207501   0.0000000), wk =   0.2962963
        k(    8) = (   0.1111111   0.4490502   0.0000000), wk =   0.2962963
        k(    9) = (   0.1111111   0.5773503   0.0000000), wk =   0.1481481
        k(   10) = (   0.2222222   0.3849002   0.0000000), wk =   0.1481481
        k(   11) = (   0.2222222   0.5132002   0.0000000), wk =   0.2962963
        k(   12) = (   0.3333333   0.5773503   0.0000000), wk =   0.0493827

     Dense  grid:   120595 G-vectors     FFT dimensions: (  54,  54, 108)

     Estimated max dynamical RAM per process >     228.51 MB

     Initial potential from superposition of free atoms

     starting charge      23.9977, renormalised to      24.0000

     negative rho (up, down):  4.485E-05 0.000E+00
     Starting wfcs are   32 randomized atomic wfcs

     total cpu time spent up to now is       52.8 secs

     per-process dynamical memory:   132.4 Mb

     Self-consistent Calculation

     iteration #  1     ecut=    70.00 Ry     beta= 0.70
     Davidson diagonalization with overlap
     ethr =  1.00E-02,  avg # of iterations =  2.0

     negative rho (up, down):  3.636E-04 0.000E+00

     total cpu time spent up to now is       65.2 secs

     total energy              =     -49.87037881 Ry
     estimated scf accuracy    <       0.68832991 Ry

     iteration #  2     ecut=    70.00 Ry     beta= 0.70
     Davidson diagonalization with overlap
     ethr =  2.87E-03,  avg # of iterations =  2.0

     negative rho (up, down):  6.341E-04 0.000E+00

     total cpu time spent up to now is       77.7 secs

     total energy              =     -49.98249289 Ry
     estimated scf accuracy    <       0.01772713 Ry

     iteration #  3     ecut=    70.00 Ry     beta= 0.70
     Davidson diagonalization with overlap
     ethr =  7.39E-05,  avg # of iterations =  5.3

     negative rho (up, down):  7.291E-04 0.000E+00

     total cpu time spent up to now is       83.5 secs

     total energy              =     -49.98702071 Ry
     estimated scf accuracy    <       0.00467611 Ry

     iteration #  4     ecut=    70.00 Ry     beta= 0.70
     Davidson diagonalization with overlap
     ethr =  1.95E-05,  avg # of iterations =  3.2

     negative rho (up, down):  8.302E-04 0.000E+00

     total cpu time spent up to now is       96.7 secs

     total energy              =     -49.98804281 Ry
     estimated scf accuracy    <       0.00016542 Ry

     iteration #  5     ecut=    70.00 Ry     beta= 0.70
     Davidson diagonalization with overlap
     c_bands:  1 eigenvalues not converged
     ethr =  6.89E-07,  avg # of iterations =  5.5

     negative rho (up, down):  8.392E-04 0.000E+00

     total cpu time spent up to now is      101.6 secs

     total energy              =     -49.98806203 Ry
     estimated scf accuracy    <       0.00001637 Ry

     iteration #  6     ecut=    70.00 Ry     beta= 0.70
     Davidson diagonalization with overlap
     ethr =  6.82E-08,  avg # of iterations =  2.3

     negative rho (up, down):  8.394E-04 0.000E+00

     total cpu time spent up to now is      114.0 secs

     End of self-consistent calculation

          k = 0.0000 0.0000 0.0000 ( 15117 PWs)   bands (ev):

   -16.1954 -12.0839 -12.0032 -12.0031  -9.7582  -9.7581  -7.6309  -7.0621
    -2.1403  -2.1403  -0.6667  -0.1542  -0.1542   0.1228   0.1228   0.4899

          k = 0.0000 0.1283 0.0000 ( 15072 PWs)   bands (ev):

   -16.1402 -12.7522 -12.0544 -11.3787  -9.8264  -9.6170  -7.3932  -6.9772
    -2.7465  -2.6554  -1.6170  -0.5986   0.0030   0.6921   0.7795   1.1003

          k = 0.0000 0.2566 0.0000 ( 15058 PWs)   bands (ev):

   -15.9776 -13.4352 -12.1679 -10.9674  -9.7346  -9.2457  -6.9203  -6.7257
    -3.7855  -3.4957  -2.7691  -1.0996  -0.2132   1.7365   1.9605   2.0958

          k = 0.0000 0.3849 0.0000 ( 15040 PWs)   bands (ev):

   -15.7221 -14.0524 -12.2769 -10.9438  -9.2167  -8.7611  -6.6805  -6.3222
    -4.7502  -4.0275  -3.8005  -1.4457  -0.4347   2.7664   3.1384   3.2540

          k = 0.0000 0.5132 0.0000 ( 15054 PWs)   bands (ev):

   -15.4412 -14.5187 -12.3398 -11.0064  -8.6573  -8.3603  -6.8837  -5.8495
    -5.3943  -4.5930  -4.0873  -1.6206  -0.5610   3.3322   3.6870   3.8444

          k = 0.1111 0.1925 0.0000 ( 15071 PWs)   bands (ev):

   -16.0311 -13.2469 -12.1809 -10.9521  -9.8914  -9.3219  -7.0465  -6.8089
    -3.5290  -3.2449  -2.4163  -1.2543   0.3585   1.2346   1.2987   1.7751

          k = 0.1111 0.3208 0.0000 ( 15078 PWs)   bands (ev):

   -15.8199 -13.8239 -12.3662 -10.6567  -9.6966  -8.8403  -6.7411  -6.4791
    -4.3596  -3.9107  -3.3684  -1.8078   0.3611   2.0346   2.0658   2.9978

          k = 0.1111 0.4491 0.0000 ( 15065 PWs)   bands (ev):

   -15.5342 -14.3506 -12.5033 -10.6571  -9.1280  -8.3643  -6.9343  -6.0184
    -4.9494  -4.2523  -4.1651  -2.1190   0.2247   2.7743   3.1778   3.5422

          k = 0.1111 0.5774 0.0000 ( 15058 PWs)   bands (ev):

   -15.3345 -14.6337 -12.5522 -10.6818  -8.7531  -8.1433  -7.2382  -5.6665
    -5.2110  -4.7515  -4.1236  -2.2197   0.1687   3.1976   3.2616   4.1552

          k = 0.2222 0.3849 0.0000 ( 15061 PWs)   bands (ev):

   -15.5696 -14.2605 -12.6448 -10.1672  -9.6416  -8.3451  -7.0009  -6.0819
    -4.5430  -4.3368  -4.0253  -2.4899   1.1584   2.1043   2.3924   3.4535

          k = 0.2222 0.5132 0.0000 ( 15057 PWs)   bands (ev):

   -15.2740 -14.6582 -12.8094 -10.0242  -9.1999  -8.0130  -7.5971  -5.5955
    -4.7050  -4.6692  -4.3047  -2.8226   1.3519   2.7281   2.9481   3.3039

          k = 0.3333 0.5774 0.0000 ( 15045 PWs)   bands (ev):

   -14.9710 -14.9709 -12.9331  -9.4365  -9.4364  -8.0141  -7.8857  -5.1170
    -5.1170  -4.4515  -4.4515  -3.0956   2.4481   2.4482   2.8851   2.8851

     the Fermi energy is    -0.6100 ev

!    total energy              =     -49.98806653 Ry
     estimated scf accuracy    <       0.00000089 Ry
     smearing contrib. (-TS)   =       0.00020694 Ry
     internal energy E=F+TS    =     -49.98827347 Ry

     The total energy is F=E-TS. E is the sum of the following terms:
     one-electron contribution =    -179.33810921 Ry
     hartree contribution      =      94.23721953 Ry
     xc contribution           =     -23.21097817 Ry
     ewald contribution        =      58.32359438 Ry

     convergence has been achieved in   6 iterations


     Computing stress (Cartesian axis) and pressure


     negative rho (up, down):  8.394E-04 0.000E+00
          total   stress  (Ry/bohr**3)                   (kbar)     P=        0.38
   0.00000428  -0.00000000   0.00000000            0.63       -0.00        0.00
  -0.00000000   0.00000428   0.00000000           -0.00        0.63        0.00
   0.00000000   0.00000000  -0.00000086            0.00        0.00       -0.13


     Writing all to output data dir ../../outdir/borophene.save/

     init_run     :      8.73s CPU     52.76s WALL (       1 calls)
     electrons    :    109.21s CPU     61.17s WALL (       1 calls)
     stress       :      7.89s CPU     -4.86s WALL (       1 calls)

     Called by init_run:
     wfcinit      :      7.71s CPU     51.80s WALL (       1 calls)
     potinit      :      0.17s CPU      0.14s WALL (       1 calls)
     hinit0       :      0.73s CPU      0.65s WALL (       1 calls)

     Called by electrons:
     c_bands      :     89.08s CPU     45.38s WALL (       6 calls)
     sum_band     :     18.63s CPU     14.42s WALL (       6 calls)
     v_of_rho     :      1.10s CPU      0.82s WALL (       7 calls)
     newd         :      0.43s CPU      0.59s WALL (       7 calls)
     mix_rho      :      0.13s CPU      0.13s WALL (       6 calls)

     Called by c_bands:
     init_us_2    :      0.95s CPU      0.85s WALL (     168 calls)
     init_us_2:cp :      0.95s CPU      0.85s WALL (     168 calls)
     cegterg      :     87.55s CPU     44.11s WALL (      72 calls)

     Called by *egterg:
     cdiaghg      :      0.18s CPU      0.13s WALL (     316 calls)
     h_psi        :     87.30s CPU     90.47s WALL (     328 calls)
     s_psi        :      1.87s CPU      1.10s WALL (     328 calls)
     g_psi        :      0.26s CPU      0.23s WALL (     244 calls)

     Called by h_psi:
     h_psi:calbec :      2.10s CPU      2.03s WALL (     328 calls)
     vloc_psi     :     83.11s CPU     87.08s WALL (     328 calls)
     add_vuspsi   :      1.81s CPU      1.05s WALL (     328 calls)

     General routines
     calbec       :      2.90s CPU      2.75s WALL (     412 calls)
     fft          :      0.97s CPU      0.84s WALL (      91 calls)
     ffts         :      0.04s CPU      0.03s WALL (       6 calls)
     fftw         :     85.17s CPU     42.50s WALL (    8344 calls)

     Parallel routines

     PWSCF        :   2m 5.98s CPU   1m49.33s WALL


   This run was terminated on:  12: 0: 9  21Jul2025            

=------------------------------------------------------------------------------=
   JOB DONE.
=------------------------------------------------------------------------------=
