
     Program PWSCF v.7.2 starts on  2Jul2025 at 11:37:41 

     This program is part of the open-source Quantum ESPRESSO suite
     for quantum simulation of materials; please cite
         "P. Giannozzi et al., J. Phys.:Condens. Matter 21 395502 (2009);
         "P. Giannozzi et al., J. Phys.:Condens. Matter 29 465901 (2017);
         "P. Giannozzi et al., J. Chem. Phys. 152 154105 (2020);
          URL http://www.quantum-espresso.org", 
     in publications or presentations arising from this work. More details at
     http://www.quantum-espresso.org/quote

     Parallel version (MPI & OpenMP), running on       2 processor cores
     Number of MPI processes:                 1
     Threads/MPI process:                     2

     MPI processes distributed on     1 nodes
     384 MiB available memory on the printing compute node when the environment starts

     Reading input from ../degauss/alpha_0.03.in

     Current dimensions of program PWSCF are:
     Max number of different atomic species (ntypx) = 10
     Max number of k-points (npk) =  40000
     Max angular momentum in pseudopotentials (lmaxx) =  4
     file B.pbesol-n-rrkjus_psl.1.0.0.UPF: wavefunction(s)  2S renormalized

     IMPORTANT: XC functional enforced from input :
     Exchange-correlation= PBESOL
                           (   1   4  10   8   0   0   0)
     Any further DFT definition will be discarded
     Please, verify this is what you really want


     Subspace diagonalization in iterative solution of the eigenvalue problem:
     a serial algorithm will be used


     G-vector sticks info
     --------------------
     sticks:   dense  smooth     PW     G-vecs:    dense   smooth      PW
     Sum        1735    1735    499               117515   117515   17051

     Using Slab Decomposition



     bravais-lattice index     =            4
     lattice parameter (alat)  =       9.5000  a.u.
     unit-cell volume          =    1485.0171 (a.u.)^3
     number of atoms/cell      =            8
     number of atomic types    =            1
     number of electrons       =        24.00
     number of Kohn-Sham states=           16
     kinetic-energy cutoff     =      70.0000  Ry
     charge density cutoff     =     280.0000  Ry
     scf convergence threshold =      1.0E-06
     mixing beta               =       0.7000
     number of iterations used =            8  plain     mixing
     Exchange-correlation= PBESOL
                           (   1   4  10   8   0   0   0)

     celldm(1)=   9.500000  celldm(2)=   0.000000  celldm(3)=   2.000000
     celldm(4)=   0.000000  celldm(5)=   0.000000  celldm(6)=   0.000000

     crystal axes: (cart. coord. in units of alat)
               a(1) = (   1.000000   0.000000   0.000000 )  
               a(2) = (  -0.500000   0.866025   0.000000 )  
               a(3) = (   0.000000   0.000000   2.000000 )  

     reciprocal axes: (cart. coord. in units 2 pi/alat)
               b(1) = (  1.000000  0.577350 -0.000000 )  
               b(2) = (  0.000000  1.154701  0.000000 )  
               b(3) = (  0.000000 -0.000000  0.500000 )  


     PseudoPot. # 1 for B  read from file:
     ../../pseudo/B.pbesol-n-rrkjus_psl.1.0.0.UPF
     MD5 check sum: a3839a09b1a4e02f2a06a66adc9253fc
     Pseudo is Ultrasoft + core correction, Zval =  3.0
     Generated using &quot;atomic&quot; code by A. Dal Corso  v.6.3MaX
     Using radial grid of 1059 points,  4 beta functions with: 
                l(1) =   0
                l(2) =   0
                l(3) =   1
                l(4) =   1
     Q(r) pseudized with 0 coefficients 


     atomic species   valence    mass     pseudopotential
        B              3.00    10.81100     B ( 1.00)

     24 Sym. Ops., with inversion, found



   Cartesian axes

     site n.     atom                  positions (alat units)
         1           B   tau(   1) = (   0.3333330   0.0000000   0.0000000  )
         2           B   tau(   2) = (   0.6666670   0.0000000   0.0000000  )
         3           B   tau(   3) = (  -0.1666665   0.2886748   0.0000000  )
         4           B   tau(   4) = (   0.1666665   0.2886748   0.0000000  )
         5           B   tau(   5) = (   0.5000005   0.2886748   0.0000000  )
         6           B   tau(   6) = (  -0.3333335   0.5773506   0.0000000  )
         7           B   tau(   7) = (  -0.0000005   0.5773506   0.0000000  )
         8           B   tau(   8) = (   0.3333335   0.5773506   0.0000000  )

     number of k points=    12  Marzari-Vanderbilt smearing, width (Ry)=  0.0300
                       cart. coord. in units 2pi/alat
        k(    1) = (   0.0000000   0.0000000   0.0000000), wk =   0.0246914
        k(    2) = (   0.0000000   0.1283001   0.0000000), wk =   0.1481481
        k(    3) = (   0.0000000   0.2566001   0.0000000), wk =   0.1481481
        k(    4) = (   0.0000000   0.3849002   0.0000000), wk =   0.1481481
        k(    5) = (   0.0000000   0.5132002   0.0000000), wk =   0.1481481
        k(    6) = (   0.1111111   0.1924501   0.0000000), wk =   0.1481481
        k(    7) = (   0.1111111   0.3207501   0.0000000), wk =   0.2962963
        k(    8) = (   0.1111111   0.4490502   0.0000000), wk =   0.2962963
        k(    9) = (   0.1111111   0.5773503   0.0000000), wk =   0.1481481
        k(   10) = (   0.2222222   0.3849002   0.0000000), wk =   0.1481481
        k(   11) = (   0.2222222   0.5132002   0.0000000), wk =   0.2962963
        k(   12) = (   0.3333333   0.5773503   0.0000000), wk =   0.0493827

     Dense  grid:   117515 G-vectors     FFT dimensions: (  54,  54, 108)

     Estimated max dynamical RAM per process >     223.28 MB

     Initial potential from superposition of free atoms

     starting charge      23.9977, renormalised to      24.0000

     negative rho (up, down):  3.125E-05 0.000E+00
     Starting wfcs are   32 randomized atomic wfcs

     total cpu time spent up to now is        6.5 secs

     per-process dynamical memory:   129.7 Mb

     Self-consistent Calculation

     iteration #  1     ecut=    70.00 Ry     beta= 0.70
     Davidson diagonalization with overlap
     ethr =  1.00E-02,  avg # of iterations =  2.1

     negative rho (up, down):  3.576E-04 0.000E+00

     total cpu time spent up to now is       19.2 secs

     total energy              =     -49.85837432 Ry
     estimated scf accuracy    <       0.74026684 Ry

     iteration #  2     ecut=    70.00 Ry     beta= 0.70
     Davidson diagonalization with overlap
     ethr =  3.08E-03,  avg # of iterations =  2.0

     negative rho (up, down):  6.527E-04 0.000E+00

     total cpu time spent up to now is       19.9 secs

     total energy              =     -49.97971880 Ry
     estimated scf accuracy    <       0.01941042 Ry

     iteration #  3     ecut=    70.00 Ry     beta= 0.70
     Davidson diagonalization with overlap
     ethr =  8.09E-05,  avg # of iterations =  5.1

     negative rho (up, down):  7.612E-04 0.000E+00

     total cpu time spent up to now is       34.4 secs

     total energy              =     -49.98473198 Ry
     estimated scf accuracy    <       0.00499920 Ry

     iteration #  4     ecut=    70.00 Ry     beta= 0.70
     Davidson diagonalization with overlap
     ethr =  2.08E-05,  avg # of iterations =  3.8

     negative rho (up, down):  8.768E-04 0.000E+00

     total cpu time spent up to now is       48.4 secs

     total energy              =     -49.98582165 Ry
     estimated scf accuracy    <       0.00017255 Ry

     iteration #  5     ecut=    70.00 Ry     beta= 0.70
     Davidson diagonalization with overlap
     ethr =  7.19E-07,  avg # of iterations =  4.9

     negative rho (up, down):  8.867E-04 0.000E+00

     total cpu time spent up to now is       52.4 secs

     total energy              =     -49.98584173 Ry
     estimated scf accuracy    <       0.00001627 Ry

     iteration #  6     ecut=    70.00 Ry     beta= 0.70
     Davidson diagonalization with overlap
     ethr =  6.78E-08,  avg # of iterations =  2.8

     negative rho (up, down):  8.869E-04 0.000E+00

     total cpu time spent up to now is       64.6 secs

     End of self-consistent calculation

          k = 0.0000 0.0000 0.0000 ( 14727 PWs)   bands (ev):

   -16.2298 -12.0830 -12.0068 -12.0068  -9.7177  -9.7177  -7.6156  -7.0889
    -2.0171  -2.0170  -0.5694  -0.0522  -0.0522   0.2964   0.2964   0.6077

          k = 0.0000 0.1283 0.0000 ( 14714 PWs)   bands (ev):

   -16.1740 -12.7580 -12.0569 -11.3746  -9.7930  -9.5776  -7.3728  -7.0025
    -2.6290  -2.5380  -1.5406  -0.5044   0.1101   0.8781   0.9641   1.2295

          k = 0.0000 0.2566 0.0000 ( 14704 PWs)   bands (ev):

   -16.0097 -13.4456 -12.1683 -10.9553  -9.7142  -9.2082  -6.8940  -6.7462
    -3.6781  -3.3866  -2.7155  -1.0149  -0.1132   1.9505   2.1713   2.2453

          k = 0.0000 0.3849 0.0000 ( 14698 PWs)   bands (ev):

   -15.7516 -14.0675 -12.2758 -10.9291  -9.2011  -8.7260  -6.6533  -6.3351
    -4.6498  -3.9232  -3.7669  -1.3677  -0.3413   3.0115   3.2602   3.3832

          k = 0.0000 0.5132 0.0000 ( 14684 PWs)   bands (ev):

   -15.4677 -14.5379 -12.3379 -10.9928  -8.6413  -8.3285  -6.8547  -5.8531
    -5.2955  -4.5750  -3.9885  -1.5459  -0.4712   3.6350   3.8840   4.0183

          k = 0.1111 0.1925 0.0000 ( 14679 PWs)   bands (ev):

   -16.0637 -13.2560 -12.1820 -10.9428  -9.8651  -9.2857  -7.0212  -6.8310
    -3.4169  -3.1364  -2.3554  -1.1741   0.4743   1.3613   1.5066   1.9759

          k = 0.1111 0.3208 0.0000 ( 14694 PWs)   bands (ev):

   -15.8504 -13.8371 -12.3665 -10.6407  -9.6766  -8.8087  -6.7138  -6.4950
    -4.2543  -3.8089  -3.3259  -1.7391   0.4743   2.1781   2.3062   3.0630

          k = 0.1111 0.4491 0.0000 ( 14680 PWs)   bands (ev):

   -15.5618 -14.3680 -12.5035 -10.6402  -9.1068  -8.3373  -6.9038  -6.0254
    -4.8531  -4.2271  -4.0662  -2.0564   0.3331   3.0503   3.3475   3.6215

          k = 0.1111 0.5774 0.0000 ( 14694 PWs)   bands (ev):

   -15.3599 -14.6537 -12.5525 -10.6652  -8.7303  -8.1193  -7.2055  -5.6663
    -5.1165  -4.7363  -4.0277  -2.1591   0.2754   3.4898   3.5794   4.2733

          k = 0.2222 0.3849 0.0000 ( 14695 PWs)   bands (ev):

   -15.5975 -14.2769 -12.6467 -10.1457  -9.6213  -8.3199  -6.9700  -6.0902
    -4.4437  -4.2422  -3.9948  -2.4359   1.2902   2.2465   2.6661   3.5278

          k = 0.2222 0.5132 0.0000 ( 14689 PWs)   bands (ev):

   -15.2990 -14.6780 -12.8126 -10.0016  -9.1751  -7.9922  -7.5650  -5.5944
    -4.6511  -4.6128  -4.2115  -2.7754   1.4851   3.0292   3.1132   3.6243

          k = 0.3333 0.5774 0.0000 ( 14640 PWs)   bands (ev):

   -14.9932 -14.9932 -12.9378  -9.4099  -9.4098  -7.9849  -7.8669  -5.1067
    -5.1067  -4.3603  -4.3602  -3.0546   2.6063   2.6063   3.2002   3.2002

     the Fermi energy is    -0.4883 ev

!    total energy              =     -49.98584632 Ry
     estimated scf accuracy    <       0.00000091 Ry
     smearing contrib. (-TS)   =      -0.00058582 Ry
     internal energy E=F+TS    =     -49.98526050 Ry

     The total energy is F=E-TS. E is the sum of the following terms:
     one-electron contribution =    -180.27044340 Ry
     hartree contribution      =      94.80836722 Ry
     xc contribution           =     -23.33792475 Ry
     ewald contribution        =      58.81474043 Ry

     convergence has been achieved in   6 iterations

     Writing all to output data dir ../../outdir/borophene.save/

     init_run     :      8.69s CPU      6.41s WALL (       1 calls)
     electrons    :    109.37s CPU     58.09s WALL (       1 calls)

     Called by init_run:
     wfcinit      :      7.63s CPU      5.43s WALL (       1 calls)
     potinit      :      0.18s CPU      0.14s WALL (       1 calls)
     hinit0       :      0.74s CPU      0.66s WALL (       1 calls)

     Called by electrons:
     c_bands      :     88.49s CPU     52.95s WALL (       6 calls)
     sum_band     :     19.31s CPU      3.80s WALL (       6 calls)
     v_of_rho     :      1.15s CPU      0.81s WALL (       7 calls)
     newd         :      0.47s CPU      0.57s WALL (       7 calls)
     mix_rho      :      0.12s CPU      0.12s WALL (       6 calls)

     Called by c_bands:
     init_us_2    :      0.87s CPU      0.80s WALL (     156 calls)
     init_us_2:cp :      0.87s CPU      0.80s WALL (     156 calls)
     cegterg      :     86.92s CPU     51.71s WALL (      72 calls)

     Called by *egterg:
     cdiaghg      :      0.19s CPU      0.12s WALL (     320 calls)
     h_psi        :     86.47s CPU     51.70s WALL (     332 calls)
     s_psi        :      1.91s CPU      1.14s WALL (     332 calls)
     g_psi        :      0.28s CPU      0.25s WALL (     248 calls)

     Called by h_psi:
     h_psi:calbec :      2.26s CPU      1.99s WALL (     332 calls)
     vloc_psi     :     82.18s CPU     48.37s WALL (     332 calls)
     add_vuspsi   :      1.73s CPU      1.02s WALL (     332 calls)

     General routines
     calbec       :      3.19s CPU      2.65s WALL (     404 calls)
     fft          :      0.89s CPU      0.76s WALL (      77 calls)
     ffts         :      0.04s CPU      0.03s WALL (       6 calls)
     fftw         :     84.77s CPU     39.72s WALL (    8398 calls)

     Parallel routines

     PWSCF        :   1m58.23s CPU   1m 4.75s WALL


   This run was terminated on:  11:38:46   2Jul2025            

=------------------------------------------------------------------------------=
   JOB DONE.
=------------------------------------------------------------------------------=
