
     Program PROJWFC v.7.2 starts on  1Aug2025 at 11:39:59 

     This program is part of the open-source Quantum ESPRESSO suite
     for quantum simulation of materials; please cite
         "P. Giannozzi et al., J. Phys.:Condens. Matter 21 395502 (2009);
         "P. Giannozzi et al., J. Phys.:Condens. Matter 29 465901 (2017);
         "P. Giannozzi et al., J. Chem. Phys. 152 154105 (2020);
          URL http://www.quantum-espresso.org", 
     in publications or presentations arising from this work. More details at
     http://www.quantum-espresso.org/quote

     Parallel version (MPI & OpenMP), running on       2 processor cores
     Number of MPI processes:                 1
     Threads/MPI process:                     2

     MPI processes distributed on     1 nodes
     279 MiB available memory on the printing compute node when the environment starts


     Reading xml data from directory:

     ../../outdir/borophene.save/
     file B.pbesol-n-rrkjus_psl.1.0.0.UPF: wavefunction(s)  2S renormalized

     IMPORTANT: XC functional enforced from input :
     Exchange-correlation= PBESOL
                           (   1   4  10   8   0   0   0)
     Any further DFT definition will be discarded
     Please, verify this is what you really want


     G-vector sticks info
     --------------------
     sticks:   dense  smooth     PW     G-vecs:    dense   smooth      PW
     Sum        1357    1357    379               149567   149567   22137

     Using Slab Decomposition


     Check: negative core charge=   -0.000001

     negative rho (up, down):  1.037E-03 0.000E+00

     Linear tetrahedron method (read from file) 
     [opt_tetra]  Linear tetrahedron method is used.

     Calling projwave .... 
     Subspace diagonalization in iterative solution of the eigenvalue problem:
     a serial algorithm will be used


  Problem Sizes 
  natomwfc =           32
  nbnd     =           16
  nkstot   =           30
  npwx     =        18743
  nkb      =           64


     Atomic states used for projection
     (read from pseudopotential files):

     state #   1: atom   1 (B  ), wfc  1 (l=0 m= 1)
     state #   2: atom   1 (B  ), wfc  2 (l=1 m= 1)
     state #   3: atom   1 (B  ), wfc  2 (l=1 m= 2)
     state #   4: atom   1 (B  ), wfc  2 (l=1 m= 3)
     state #   5: atom   2 (B  ), wfc  1 (l=0 m= 1)
     state #   6: atom   2 (B  ), wfc  2 (l=1 m= 1)
     state #   7: atom   2 (B  ), wfc  2 (l=1 m= 2)
     state #   8: atom   2 (B  ), wfc  2 (l=1 m= 3)
     state #   9: atom   3 (B  ), wfc  1 (l=0 m= 1)
     state #  10: atom   3 (B  ), wfc  2 (l=1 m= 1)
     state #  11: atom   3 (B  ), wfc  2 (l=1 m= 2)
     state #  12: atom   3 (B  ), wfc  2 (l=1 m= 3)
     state #  13: atom   4 (B  ), wfc  1 (l=0 m= 1)
     state #  14: atom   4 (B  ), wfc  2 (l=1 m= 1)
     state #  15: atom   4 (B  ), wfc  2 (l=1 m= 2)
     state #  16: atom   4 (B  ), wfc  2 (l=1 m= 3)
     state #  17: atom   5 (B  ), wfc  1 (l=0 m= 1)
     state #  18: atom   5 (B  ), wfc  2 (l=1 m= 1)
     state #  19: atom   5 (B  ), wfc  2 (l=1 m= 2)
     state #  20: atom   5 (B  ), wfc  2 (l=1 m= 3)
     state #  21: atom   6 (B  ), wfc  1 (l=0 m= 1)
     state #  22: atom   6 (B  ), wfc  2 (l=1 m= 1)
     state #  23: atom   6 (B  ), wfc  2 (l=1 m= 2)
     state #  24: atom   6 (B  ), wfc  2 (l=1 m= 3)
     state #  25: atom   7 (B  ), wfc  1 (l=0 m= 1)
     state #  26: atom   7 (B  ), wfc  2 (l=1 m= 1)
     state #  27: atom   7 (B  ), wfc  2 (l=1 m= 2)
     state #  28: atom   7 (B  ), wfc  2 (l=1 m= 3)
     state #  29: atom   8 (B  ), wfc  1 (l=0 m= 1)
     state #  30: atom   8 (B  ), wfc  2 (l=1 m= 1)
     state #  31: atom   8 (B  ), wfc  2 (l=1 m= 2)
     state #  32: atom   8 (B  ), wfc  2 (l=1 m= 3)

 k =   0.0000000000  0.0000000000  0.0000000000
==== e(   1) =   -17.71909 eV ==== 
     psi = 0.133*[#  17]+0.133*[#  25]+0.104*[#   5]+0.104*[#  13]+0.104*[#  21]
          +0.100*[#   1]+0.100*[#   9]+0.100*[#  29]+0.017*[#  18]+0.017*[#  26]
          +0.012*[#   2]+0.012*[#  10]+0.012*[#  30]+0.009*[#   7]+0.006*[#  16]
          +0.006*[#  24]+0.005*[#   3]+0.004*[#  12]+0.004*[#  32]+0.002*[#  15]
          +0.002*[#  23]+0.001*[#  11]+0.001*[#  31]
    |psi|^2 = 0.988
==== e(   2) =   -13.00038 eV ==== 
     psi = 0.128*[#   8]+0.115*[#   4]+0.111*[#  17]+0.111*[#  25]+0.096*[#  15]
          +0.096*[#  23]+0.086*[#  11]+0.086*[#  31]+0.032*[#  16]+0.032*[#  24]
          +0.029*[#  12]+0.029*[#  32]+0.015*[#  18]+0.015*[#  26]
    |psi|^2 = 0.983
==== e(   3) =   -12.76275 eV ==== 
     psi = 0.093*[#  19]+0.093*[#  20]+0.093*[#  27]+0.093*[#  28]+0.041*[#   7]
          +0.041*[#  16]+0.041*[#  24]+0.040*[#   8]+0.040*[#  15]+0.040*[#  23]
          +0.036*[#   1]+0.036*[#   9]+0.036*[#  29]+0.028*[#   3]+0.028*[#   5]
          +0.028*[#  12]+0.028*[#  13]+0.028*[#  21]+0.028*[#  32]+0.026*[#  11]
          +0.026*[#  31]+0.025*[#   4]+0.005*[#   2]+0.005*[#  10]+0.005*[#  30]
          
    |psi|^2 = 0.981
==== e(   4) =   -12.76272 eV ==== 
     psi = 0.093*[#  19]+0.093*[#  20]+0.093*[#  27]+0.093*[#  28]+0.041*[#   7]
          +0.041*[#  16]+0.041*[#  24]+0.040*[#   8]+0.040*[#  15]+0.040*[#  23]
          +0.036*[#   1]+0.036*[#   9]+0.036*[#  29]+0.028*[#   3]+0.028*[#   5]
          +0.028*[#  12]+0.028*[#  13]+0.028*[#  21]+0.028*[#  32]+0.026*[#  11]
          +0.026*[#  31]+0.025*[#   4]+0.005*[#   2]+0.005*[#  10]+0.005*[#  30]
          
    |psi|^2 = 0.981
==== e(   5) =   -10.57383 eV ==== 
     psi = 0.061*[#  19]+0.061*[#  20]+0.061*[#  27]+0.061*[#  28]+0.057*[#   5]
          +0.057*[#  13]+0.057*[#  21]+0.051*[#   4]+0.051*[#   8]+0.046*[#  11]
          +0.046*[#  31]+0.042*[#   1]+0.042*[#   9]+0.042*[#  29]+0.041*[#  15]
          +0.041*[#  23]+0.036*[#  12]+0.036*[#  32]+0.031*[#   3]+0.022*[#  16]
          +0.022*[#  24]+0.013*[#   7]+0.004*[#   2]+0.004*[#  10]+0.004*[#  30]
          
    |psi|^2 = 0.988
==== e(   6) =   -10.57378 eV ==== 
     psi = 0.061*[#  19]+0.061*[#  20]+0.061*[#  27]+0.061*[#  28]+0.057*[#   5]
          +0.057*[#  13]+0.057*[#  21]+0.051*[#   4]+0.051*[#   8]+0.046*[#  11]
          +0.046*[#  31]+0.042*[#   1]+0.042*[#   9]+0.042*[#  29]+0.041*[#  15]
          +0.041*[#  23]+0.036*[#  12]+0.036*[#  32]+0.031*[#   3]+0.022*[#  16]
          +0.022*[#  24]+0.013*[#   7]+0.004*[#   2]+0.004*[#  10]+0.004*[#  30]
          
    |psi|^2 = 0.988
==== e(   7) =    -9.18452 eV ==== 
     psi = 0.126*[#   7]+0.107*[#   3]+0.095*[#  16]+0.095*[#  24]+0.080*[#  12]
          +0.080*[#  32]+0.032*[#  15]+0.032*[#  23]+0.027*[#  11]+0.027*[#  31]
          +0.026*[#   6]+0.026*[#  14]+0.026*[#  22]+0.024*[#   1]+0.024*[#   9]
          +0.024*[#  29]+0.015*[#   5]+0.015*[#  13]+0.015*[#  21]+0.015*[#  17]
          +0.015*[#  25]+0.012*[#   2]+0.012*[#  10]+0.012*[#  30]+0.007*[#  18]
          +0.007*[#  26]
    |psi|^2 = 0.975
==== e(   8) =    -8.55817 eV ==== 
     psi = 0.117*[#  18]+0.117*[#  26]+0.091*[#   6]+0.091*[#  14]+0.091*[#  22]
          +0.076*[#   2]+0.076*[#  10]+0.076*[#  30]+0.031*[#   3]+0.023*[#  12]
          +0.023*[#  32]+0.021*[#   7]+0.016*[#  16]+0.016*[#  24]+0.008*[#  11]
          +0.008*[#  31]+0.006*[#  17]+0.006*[#  25]+0.005*[#  15]+0.005*[#  23]
          +0.004*[#   5]+0.004*[#  13]+0.004*[#  21]+0.001*[#   1]+0.001*[#   9]
          +0.001*[#  29]
    |psi|^2 = 0.920
==== e(   9) =    -2.13226 eV ==== 
     psi = 0.091*[#   4]+0.073*[#  11]+0.073*[#  31]+0.073*[#   8]+0.072*[#  15]
          +0.072*[#  23]+0.070*[#  16]+0.070*[#  24]+0.069*[#   7]+0.068*[#   6]
          +0.068*[#  14]+0.068*[#  22]+0.037*[#  12]+0.037*[#  32]+0.018*[#   3]
          +0.008*[#  19]+0.008*[#  20]+0.008*[#  27]+0.008*[#  28]
    |psi|^2 = 0.994
==== e(  10) =    -2.13225 eV ==== 
     psi = 0.091*[#   4]+0.073*[#  11]+0.073*[#  31]+0.073*[#   8]+0.072*[#  15]
          +0.072*[#  23]+0.070*[#  16]+0.070*[#  24]+0.069*[#   7]+0.068*[#   6]
          +0.068*[#  14]+0.068*[#  22]+0.037*[#  12]+0.037*[#  32]+0.018*[#   3]
          +0.008*[#  19]+0.008*[#  20]+0.008*[#  27]+0.008*[#  28]
    |psi|^2 = 0.994
==== e(  11) =    -1.78746 eV ==== 
     psi = 0.390*[#  18]+0.390*[#  26]+0.078*[#  17]+0.078*[#  25]+0.013*[#   4]
          +0.010*[#  11]+0.010*[#  31]+0.005*[#   8]+0.004*[#  15]+0.004*[#  23]
          +0.003*[#  12]+0.003*[#  32]+0.001*[#  16]+0.001*[#  24]
    |psi|^2 = 0.991
==== e(  12) =    -1.66358 eV ==== 
     psi = 0.170*[#   6]+0.170*[#  14]+0.170*[#  22]+0.084*[#   3]+0.065*[#  12]
          +0.065*[#  32]+0.028*[#  19]+0.028*[#  20]+0.028*[#  27]+0.028*[#  28]
          +0.028*[#  11]+0.028*[#  31]+0.015*[#   8]+0.014*[#  15]+0.014*[#  23]
          +0.012*[#  16]+0.012*[#  24]+0.011*[#   7]+0.009*[#   4]+0.003*[#   1]
          +0.003*[#   2]+0.003*[#   9]+0.003*[#  10]+0.003*[#  29]+0.003*[#  30]
          
    |psi|^2 = 0.993
==== e(  13) =    -1.66356 eV ==== 
     psi = 0.170*[#   6]+0.170*[#  14]+0.170*[#  22]+0.084*[#   3]+0.065*[#  12]
          +0.065*[#  32]+0.028*[#  19]+0.028*[#  20]+0.028*[#  27]+0.028*[#  28]
          +0.028*[#  11]+0.028*[#  31]+0.015*[#   8]+0.014*[#  15]+0.014*[#  23]
          +0.012*[#  16]+0.012*[#  24]+0.011*[#   7]+0.009*[#   4]+0.003*[#   1]
          +0.003*[#   2]+0.003*[#   9]+0.003*[#  10]+0.003*[#  29]+0.003*[#  30]
          
    |psi|^2 = 0.993
==== e(  14) =    -1.17432 eV ==== 
     psi = 0.224*[#   2]+0.224*[#  10]+0.224*[#  30]+0.061*[#   1]+0.061*[#   9]
          +0.061*[#  29]+0.022*[#  19]+0.022*[#  20]+0.022*[#  27]+0.022*[#  28]
          +0.008*[#   7]+0.006*[#  16]+0.006*[#  24]+0.004*[#   3]+0.004*[#  12]
          +0.004*[#  32]+0.003*[#  11]+0.003*[#  31]+0.003*[#   4]+0.002*[#  15]
          +0.002*[#  23]
    |psi|^2 = 0.992
==== e(  15) =    -1.17430 eV ==== 
     psi = 0.224*[#   2]+0.224*[#  10]+0.224*[#  30]+0.061*[#   1]+0.061*[#   9]
          +0.061*[#  29]+0.022*[#  19]+0.022*[#  20]+0.022*[#  27]+0.022*[#  28]
          +0.008*[#   7]+0.006*[#  16]+0.006*[#  24]+0.004*[#   3]+0.004*[#  12]
          +0.004*[#  32]+0.003*[#  11]+0.003*[#  31]+0.003*[#   4]+0.002*[#  15]
          +0.002*[#  23]
    |psi|^2 = 0.992
==== e(  16) =    -0.52974 eV ==== 
     psi = 0.184*[#  18]+0.184*[#  26]+0.123*[#   2]+0.123*[#  10]+0.123*[#  30]
          +0.022*[#  17]+0.022*[#  25]+0.009*[#   1]+0.009*[#   9]+0.009*[#  29]
          +0.003*[#   5]+0.003*[#  13]+0.003*[#  21]+0.003*[#   7]+0.002*[#  16]
          +0.002*[#  24]
    |psi|^2 = 0.824

 k =   0.0000000000  0.0721687836  0.0000000000
==== e(   1) =   -17.69860 eV ==== 
     psi = 0.131*[#  17]+0.131*[#  25]+0.102*[#   5]+0.102*[#  13]+0.102*[#  21]
          +0.098*[#   1]+0.098*[#   9]+0.098*[#  29]+0.017*[#  18]+0.017*[#  26]
          +0.012*[#   2]+0.012*[#  10]+0.012*[#  30]+0.009*[#   7]+0.007*[#  16]
          +0.007*[#  24]+0.005*[#   3]+0.004*[#  12]+0.004*[#  32]+0.003*[#  15]
          +0.003*[#  23]+0.002*[#  11]+0.002*[#  31]+0.001*[#   8]+0.001*[#   4]
          
    |psi|^2 = 0.988
==== e(   2) =   -13.35993 eV ==== 
     psi = 0.092*[#   8]+0.078*[#   4]+0.073*[#  15]+0.073*[#  23]+0.072*[#  17]
          +0.072*[#  25]+0.061*[#  11]+0.061*[#  31]+0.036*[#  16]+0.036*[#  24]
          +0.032*[#  19]+0.032*[#  20]+0.032*[#  27]+0.032*[#  28]+0.029*[#  12]
          +0.029*[#  32]+0.017*[#   7]+0.016*[#   1]+0.016*[#   9]+0.016*[#  29]
          +0.013*[#   5]+0.013*[#  13]+0.013*[#  21]+0.012*[#   3]+0.010*[#  18]
          +0.010*[#  26]+0.002*[#   2]+0.002*[#  10]+0.002*[#  30]
    |psi|^2 = 0.981
==== e(   3) =   -12.78904 eV ==== 
     psi = 0.093*[#  19]+0.093*[#  20]+0.093*[#  27]+0.093*[#  28]+0.040*[#   7]
          +0.040*[#  16]+0.040*[#  24]+0.040*[#  15]+0.040*[#  23]+0.039*[#   8]
          +0.037*[#   1]+0.037*[#   9]+0.037*[#  29]+0.029*[#   5]+0.029*[#  13]
          +0.029*[#  21]+0.028*[#   3]+0.027*[#  12]+0.027*[#  32]+0.025*[#  11]
          +0.025*[#  31]+0.025*[#   4]+0.005*[#   2]+0.005*[#  10]+0.005*[#  30]
          
    |psi|^2 = 0.981
==== e(   4) =   -12.42311 eV ==== 
     psi = 0.076*[#   8]+0.063*[#  15]+0.063*[#  23]+0.062*[#   4]+0.061*[#  19]
          +0.061*[#  20]+0.061*[#  27]+0.061*[#  28]+0.051*[#  11]+0.051*[#  31]
          +0.039*[#  17]+0.039*[#  25]+0.036*[#  16]+0.036*[#  24]+0.027*[#  12]
          +0.027*[#  32]+0.023*[#   7]+0.021*[#   1]+0.021*[#   9]+0.021*[#  29]
          +0.016*[#   5]+0.016*[#  13]+0.016*[#  21]+0.016*[#   3]+0.005*[#  18]
          +0.005*[#  26]+0.003*[#   2]+0.003*[#  10]+0.003*[#  30]
    |psi|^2 = 0.983
==== e(   5) =   -10.65084 eV ==== 
     psi = 0.056*[#  19]+0.056*[#  20]+0.056*[#  27]+0.056*[#  28]+0.054*[#   5]
          +0.054*[#  13]+0.054*[#  21]+0.047*[#   4]+0.046*[#   8]+0.045*[#  11]
          +0.045*[#  31]+0.041*[#  12]+0.041*[#  32]+0.041*[#  15]+0.041*[#  23]
          +0.040*[#   1]+0.040*[#   9]+0.040*[#  29]+0.039*[#   3]+0.029*[#  16]
          +0.029*[#  24]+0.023*[#   7]+0.004*[#   2]+0.004*[#  10]+0.004*[#  30]
          +0.001*[#  17]+0.001*[#  25]
    |psi|^2 = 0.987
==== e(   6) =   -10.51327 eV ==== 
     psi = 0.061*[#  19]+0.061*[#  20]+0.061*[#  27]+0.061*[#  28]+0.056*[#   5]
          +0.056*[#  13]+0.056*[#  21]+0.052*[#   8]+0.052*[#   4]+0.047*[#  11]
          +0.047*[#  31]+0.042*[#  15]+0.042*[#  23]+0.040*[#   1]+0.040*[#   9]
          +0.040*[#  29]+0.036*[#  12]+0.036*[#  32]+0.031*[#   3]+0.023*[#  16]
          +0.023*[#  24]+0.013*[#   7]+0.004*[#   2]+0.004*[#  10]+0.004*[#  30]
          
    |psi|^2 = 0.988
==== e(   7) =    -9.05842 eV ==== 
     psi = 0.108*[#   7]+0.090*[#   3]+0.083*[#  16]+0.083*[#  24]+0.069*[#  12]
          +0.069*[#  32]+0.034*[#   6]+0.034*[#  14]+0.034*[#  22]+0.031*[#  15]
          +0.031*[#  23]+0.026*[#  11]+0.026*[#  31]+0.024*[#   1]+0.024*[#   9]
          +0.024*[#  29]+0.018*[#   2]+0.018*[#  10]+0.018*[#  30]+0.015*[#  17]
          +0.015*[#  25]+0.014*[#   5]+0.014*[#  13]+0.014*[#  21]+0.013*[#  18]
          +0.013*[#  26]+0.005*[#  19]+0.005*[#  20]+0.005*[#  27]+0.005*[#  28]
          +0.005*[#   4]+0.005*[#   8]
    |psi|^2 = 0.972
==== e(   8) =    -8.50371 eV ==== 
     psi = 0.112*[#  18]+0.112*[#  26]+0.083*[#   6]+0.083*[#  14]+0.083*[#  22]
          +0.070*[#   2]+0.070*[#  10]+0.070*[#  30]+0.039*[#   3]+0.030*[#  12]
          +0.030*[#  32]+0.029*[#   7]+0.022*[#  16]+0.022*[#  24]+0.010*[#  11]
          +0.010*[#  31]+0.008*[#  15]+0.008*[#  23]+0.006*[#   5]+0.006*[#  13]
          +0.006*[#  21]+0.005*[#  17]+0.005*[#  25]+0.001*[#   8]
    |psi|^2 = 0.925
==== e(   9) =    -2.54273 eV ==== 
     psi = 0.093*[#   6]+0.093*[#  14]+0.093*[#  22]+0.075*[#  18]+0.075*[#  26]
          +0.048*[#   4]+0.039*[#  11]+0.039*[#  31]+0.036*[#   8]+0.034*[#  15]
          +0.034*[#  23]+0.031*[#  16]+0.031*[#  24]+0.029*[#   7]+0.023*[#  12]
          +0.023*[#  32]+0.022*[#   2]+0.022*[#  10]+0.022*[#  30]+0.017*[#  19]
          +0.017*[#  20]+0.017*[#  27]+0.017*[#  28]+0.015*[#  17]+0.015*[#  25]
          +0.015*[#   3]+0.005*[#   1]+0.005*[#   9]+0.005*[#  29]
    |psi|^2 = 0.993
==== e(  10) =    -2.43821 eV ==== 
     psi = 0.075*[#   4]+0.064*[#  11]+0.064*[#  31]+0.061*[#   8]+0.061*[#  15]
          +0.061*[#  23]+0.060*[#  16]+0.060*[#  24]+0.060*[#   6]+0.060*[#  14]
          +0.060*[#  22]+0.060*[#   7]+0.043*[#  12]+0.043*[#  32]+0.032*[#   3]
          +0.017*[#  19]+0.017*[#  20]+0.017*[#  27]+0.017*[#  28]+0.012*[#   2]
          +0.012*[#  10]+0.012*[#  30]+0.006*[#   1]+0.006*[#   9]+0.006*[#  29]
          +0.002*[#   5]+0.002*[#  13]+0.002*[#  21]
    |psi|^2 = 0.994
==== e(  11) =    -2.13301 eV ==== 
     psi = 0.131*[#  18]+0.131*[#  26]+0.051*[#   3]+0.048*[#  12]+0.048*[#  32]
          +0.045*[#   7]+0.043*[#  16]+0.043*[#  24]+0.042*[#  11]+0.042*[#  31]
          +0.040*[#  15]+0.040*[#  23]+0.039*[#   4]+0.039*[#   8]+0.028*[#  17]
          +0.028*[#  25]+0.016*[#   6]+0.016*[#  14]+0.016*[#  22]+0.016*[#   2]
          +0.016*[#  10]+0.016*[#  30]+0.011*[#   1]+0.011*[#   9]+0.011*[#  29]
          +0.005*[#  19]+0.005*[#  20]+0.005*[#  27]+0.005*[#  28]+0.001*[#   5]
          +0.001*[#  13]+0.001*[#  21]
    |psi|^2 = 0.993
==== e(  12) =    -1.77597 eV ==== 
     psi = 0.142*[#   6]+0.142*[#  14]+0.142*[#  22]+0.060*[#   3]+0.049*[#  12]
          +0.049*[#  32]+0.039*[#   2]+0.039*[#  10]+0.039*[#  30]+0.026*[#  11]
          +0.026*[#  31]+0.022*[#   7]+0.021*[#  16]+0.021*[#  24]+0.019*[#  15]
          +0.019*[#  23]+0.017*[#   8]+0.016*[#  19]+0.016*[#  20]+0.016*[#  27]
          +0.016*[#  28]+0.015*[#   4]+0.013*[#   1]+0.013*[#   9]+0.013*[#  29]
          +0.002*[#  18]+0.002*[#  26]
    |psi|^2 = 0.993
==== e(  13) =    -1.45067 eV ==== 
     psi = 0.122*[#  18]+0.122*[#  26]+0.078*[#   6]+0.078*[#  14]+0.078*[#  22]
          +0.062*[#   2]+0.062*[#  10]+0.062*[#  30]+0.032*[#   3]+0.027*[#  12]
          +0.027*[#  32]+0.023*[#  17]+0.023*[#  25]+0.017*[#  11]+0.017*[#  31]
          +0.015*[#  19]+0.015*[#  20]+0.015*[#  27]+0.015*[#  28]+0.012*[#   4]
          +0.012*[#   1]+0.012*[#   9]+0.012*[#  29]+0.010*[#   8]+0.010*[#  15]
          +0.010*[#  23]+0.009*[#  16]+0.009*[#  24]+0.009*[#   7]
    |psi|^2 = 0.993
==== e(  14) =    -0.92644 eV ==== 
     psi = 0.162*[#   2]+0.162*[#  10]+0.162*[#  30]+0.057*[#   6]+0.057*[#  14]
          +0.057*[#  22]+0.040*[#   1]+0.040*[#   9]+0.040*[#  29]+0.025*[#  19]
          +0.025*[#  20]+0.025*[#  27]+0.025*[#  28]+0.012*[#   3]+0.012*[#  12]
          +0.012*[#  32]+0.012*[#  11]+0.012*[#  31]+0.011*[#   4]+0.006*[#  18]
          +0.006*[#  26]+0.005*[#   7]+0.005*[#  16]+0.005*[#  24]+0.004*[#   8]
          +0.004*[#  15]+0.004*[#  23]+0.001*[#  17]+0.001*[#  25]
    |psi|^2 = 0.990
==== e(  15) =    -0.79431 eV ==== 
     psi = 0.153*[#   2]+0.153*[#  10]+0.153*[#  30]+0.072*[#  18]+0.072*[#  26]
          +0.038*[#   1]+0.038*[#   9]+0.038*[#  29]+0.035*[#   6]+0.035*[#  14]
          +0.035*[#  22]+0.016*[#  19]+0.016*[#  20]+0.016*[#  27]+0.016*[#  28]
          +0.015*[#  17]+0.015*[#  25]+0.010*[#   4]+0.009*[#  11]+0.009*[#  31]
          +0.006*[#  12]+0.006*[#  32]+0.004*[#   7]+0.004*[#   3]+0.004*[#  16]
          +0.004*[#  24]+0.004*[#  15]+0.004*[#  23]+0.003*[#   8]
    |psi|^2 = 0.986
==== e(  16) =    -0.47738 eV ==== 
     psi = 0.167*[#  18]+0.167*[#  26]+0.120*[#   2]+0.120*[#  10]+0.120*[#  30]
          +0.017*[#  17]+0.017*[#  25]+0.011*[#   1]+0.011*[#   9]+0.011*[#  29]
          +0.007*[#  19]+0.007*[#  20]+0.007*[#  27]+0.007*[#  28]+0.004*[#   6]
          +0.004*[#  14]+0.004*[#  22]+0.003*[#   5]+0.003*[#  13]+0.003*[#  21]
          +0.002*[#   7]+0.002*[#  16]+0.002*[#  24]+0.002*[#   3]+0.002*[#  12]
          +0.002*[#  32]+0.001*[#  11]+0.001*[#   4]+0.001*[#  15]+0.001*[#  23]
          +0.001*[#  31]+0.001*[#   8]
    |psi|^2 = 0.830

 k =   0.0000000000  0.1443375673  0.0000000000
==== e(   1) =   -17.63739 eV ==== 
     psi = 0.126*[#  17]+0.126*[#  25]+0.097*[#   5]+0.097*[#  13]+0.097*[#  21]
          +0.093*[#   1]+0.093*[#   9]+0.093*[#  29]+0.017*[#  18]+0.017*[#  26]
          +0.012*[#   2]+0.012*[#  10]+0.012*[#  30]+0.011*[#   7]+0.010*[#  16]
          +0.010*[#  24]+0.007*[#   3]+0.007*[#  12]+0.007*[#  15]+0.007*[#  23]
          +0.007*[#  32]+0.005*[#  11]+0.005*[#  31]+0.005*[#   8]+0.004*[#   4]
          +0.003*[#  19]+0.003*[#  20]+0.003*[#  27]+0.003*[#  28]
    |psi|^2 = 0.987
==== e(   2) =   -13.81645 eV ==== 
     psi = 0.081*[#   8]+0.068*[#   4]+0.067*[#  17]+0.067*[#  25]+0.066*[#  15]
          +0.066*[#  23]+0.055*[#  11]+0.055*[#  31]+0.036*[#  16]+0.036*[#  24]
          +0.035*[#  19]+0.035*[#  20]+0.035*[#  27]+0.035*[#  28]+0.029*[#  12]
          +0.029*[#  32]+0.021*[#   1]+0.021*[#   9]+0.021*[#  29]+0.021*[#   7]
          +0.019*[#   5]+0.019*[#  13]+0.019*[#  21]+0.016*[#   3]+0.009*[#  18]
          +0.009*[#  26]+0.003*[#   2]+0.003*[#  10]+0.003*[#  30]
    |psi|^2 = 0.980
==== e(   3) =   -12.85851 eV ==== 
     psi = 0.093*[#  19]+0.093*[#  20]+0.093*[#  27]+0.093*[#  28]+0.040*[#   1]
          +0.040*[#   9]+0.040*[#  29]+0.038*[#   7]+0.038*[#  16]+0.038*[#  24]
          +0.037*[#  15]+0.037*[#  23]+0.037*[#   8]+0.032*[#   5]+0.032*[#  13]
          +0.032*[#  21]+0.027*[#   3]+0.026*[#  12]+0.026*[#  32]+0.024*[#  11]
          +0.024*[#  31]+0.023*[#   4]+0.005*[#   2]+0.005*[#  10]+0.005*[#  30]
          
    |psi|^2 = 0.981
==== e(   4) =   -12.05818 eV ==== 
     psi = 0.080*[#   8]+0.069*[#   4]+0.064*[#  15]+0.064*[#  23]+0.057*[#  19]
          +0.057*[#  20]+0.057*[#  27]+0.057*[#  28]+0.055*[#  11]+0.055*[#  31]
          +0.043*[#  17]+0.043*[#  25]+0.033*[#  16]+0.033*[#  24]+0.027*[#  12]
          +0.027*[#  32]+0.020*[#   1]+0.020*[#   9]+0.020*[#  29]+0.017*[#   5]
          +0.017*[#   7]+0.017*[#  13]+0.017*[#  21]+0.013*[#   3]+0.006*[#  18]
          +0.006*[#  26]+0.003*[#   2]+0.003*[#  10]+0.003*[#  30]
    |psi|^2 = 0.984
==== e(   5) =   -10.76232 eV ==== 
     psi = 0.051*[#   3]+0.049*[#  19]+0.049*[#  20]+0.049*[#  27]+0.049*[#  28]
          +0.049*[#  12]+0.049*[#  32]+0.046*[#   5]+0.046*[#  13]+0.046*[#  21]
          +0.045*[#  11]+0.045*[#  31]+0.043*[#   4]+0.043*[#   8]+0.042*[#  15]
          +0.042*[#  23]+0.040*[#  16]+0.040*[#  24]+0.039*[#   7]+0.034*[#   1]
          +0.034*[#   9]+0.034*[#  29]+0.004*[#  17]+0.004*[#  25]+0.003*[#   2]
          +0.003*[#  10]+0.003*[#  30]
    |psi|^2 = 0.985
==== e(   6) =   -10.34206 eV ==== 
     psi = 0.061*[#  19]+0.061*[#  20]+0.061*[#  27]+0.061*[#  28]+0.056*[#   8]
          +0.055*[#   4]+0.051*[#   5]+0.051*[#  13]+0.051*[#  21]+0.048*[#  11]
          +0.048*[#  31]+0.046*[#  15]+0.046*[#  23]+0.037*[#   1]+0.037*[#   9]
          +0.037*[#  29]+0.036*[#  12]+0.036*[#  32]+0.030*[#   3]+0.025*[#  16]
          +0.025*[#  24]+0.014*[#   7]+0.004*[#   2]+0.004*[#  10]+0.004*[#  30]
          
    |psi|^2 = 0.988
==== e(   7) =    -8.80311 eV ==== 
     psi = 0.066*[#   7]+0.063*[#   6]+0.063*[#  14]+0.063*[#  22]+0.052*[#  16]
          +0.052*[#  24]+0.050*[#   3]+0.040*[#   2]+0.040*[#  10]+0.040*[#  30]
          +0.040*[#  12]+0.040*[#  32]+0.040*[#  18]+0.040*[#  26]+0.023*[#  15]
          +0.023*[#  23]+0.022*[#   1]+0.022*[#   9]+0.022*[#  29]+0.020*[#  11]
          +0.020*[#  31]+0.016*[#  17]+0.016*[#  25]+0.010*[#   4]+0.010*[#  19]
          +0.010*[#  20]+0.010*[#  27]+0.010*[#  28]+0.009*[#   5]+0.009*[#  13]
          +0.009*[#  21]+0.008*[#   8]
    |psi|^2 = 0.956
==== e(   8) =    -8.31220 eV ==== 
     psi = 0.086*[#  18]+0.086*[#  26]+0.067*[#   3]+0.056*[#   7]+0.054*[#   6]
          +0.054*[#  14]+0.054*[#  22]+0.051*[#  12]+0.051*[#  32]+0.049*[#   2]
          +0.049*[#  10]+0.049*[#  30]+0.044*[#  16]+0.044*[#  24]+0.020*[#  15]
          +0.020*[#  23]+0.020*[#  11]+0.020*[#  31]+0.011*[#   5]+0.011*[#  13]
          +0.011*[#  21]+0.008*[#   8]+0.005*[#  19]+0.005*[#  20]+0.005*[#  27]
          +0.005*[#  28]+0.004*[#   4]+0.002*[#  17]+0.002*[#  25]+0.002*[#   1]
          +0.002*[#   9]+0.002*[#  29]
    |psi|^2 = 0.946
==== e(   9) =    -3.21932 eV ==== 
     psi = 0.093*[#   6]+0.093*[#  14]+0.093*[#  22]+0.090*[#  18]+0.090*[#  26]
          +0.040*[#   2]+0.040*[#  10]+0.040*[#  30]+0.031*[#   4]+0.027*[#  11]
          +0.027*[#  31]+0.025*[#   8]+0.023*[#  15]+0.023*[#  23]+0.021*[#  12]
          +0.021*[#  32]+0.020*[#  16]+0.020*[#  24]+0.019*[#   7]+0.018*[#  17]
          +0.018*[#  25]+0.017*[#   3]+0.017*[#  19]+0.017*[#  20]+0.017*[#  27]
          +0.017*[#  28]+0.010*[#   1]+0.010*[#   9]+0.010*[#  29]+0.001*[#   5]
          +0.001*[#  13]+0.001*[#  21]
    |psi|^2 = 0.993
==== e(  10) =    -2.99188 eV ==== 
     psi = 0.067*[#   4]+0.062*[#   7]+0.061*[#  11]+0.061*[#  31]+0.061*[#  16]
          +0.061*[#  24]+0.057*[#  15]+0.057*[#  23]+0.056*[#   8]+0.050*[#  12]
          +0.050*[#  32]+0.045*[#   3]+0.040*[#   6]+0.040*[#  14]+0.040*[#  22]
          +0.021*[#  19]+0.021*[#  20]+0.021*[#  27]+0.021*[#  28]+0.014*[#   2]
          +0.014*[#  10]+0.014*[#  30]+0.012*[#   1]+0.012*[#   9]+0.012*[#  29]
          +0.007*[#   5]+0.007*[#  13]+0.007*[#  21]
    |psi|^2 = 0.994
==== e(  11) =    -2.61153 eV ==== 
     psi = 0.082*[#  18]+0.082*[#  26]+0.063*[#   3]+0.057*[#  12]+0.057*[#  32]
          +0.056*[#   7]+0.052*[#  16]+0.052*[#  24]+0.045*[#  11]+0.045*[#  31]
          +0.044*[#  15]+0.044*[#  23]+0.041*[#   8]+0.040*[#   4]+0.019*[#  17]
          +0.019*[#  25]+0.017*[#   6]+0.017*[#  14]+0.017*[#  22]+0.014*[#   2]
          +0.014*[#  10]+0.014*[#  30]+0.014*[#   1]+0.014*[#   9]+0.014*[#  29]
          +0.011*[#  19]+0.011*[#  20]+0.011*[#  27]+0.011*[#  28]+0.005*[#   5]
          +0.005*[#  13]+0.005*[#  21]
    |psi|^2 = 0.993
==== e(  12) =    -2.05364 eV ==== 
     psi = 0.143*[#   6]+0.143*[#  14]+0.143*[#  22]+0.064*[#   2]+0.064*[#  10]
          +0.064*[#  30]+0.040*[#   3]+0.033*[#  12]+0.033*[#  32]+0.022*[#   7]
          +0.019*[#  16]+0.019*[#  24]+0.019*[#   1]+0.019*[#   9]+0.019*[#  11]
          +0.019*[#  29]+0.019*[#  31]+0.013*[#  15]+0.013*[#  23]+0.012*[#  19]
          +0.012*[#  20]+0.012*[#  27]+0.012*[#  28]+0.012*[#   4]+0.011*[#   8]
          +0.004*[#  18]+0.004*[#  26]+0.002*[#   5]+0.002*[#  13]+0.002*[#  21]
          +0.001*[#  17]+0.001*[#  25]
    |psi|^2 = 0.993
==== e(  13) =    -1.45906 eV ==== 
     psi = 0.128*[#  18]+0.128*[#  26]+0.110*[#   2]+0.110*[#  10]+0.110*[#  30]
          +0.053*[#   6]+0.053*[#  14]+0.053*[#  22]+0.023*[#  17]+0.023*[#  25]
          +0.015*[#   1]+0.015*[#   9]+0.015*[#  29]+0.014*[#   3]+0.013*[#  12]
          +0.013*[#  32]+0.012*[#  11]+0.012*[#  31]+0.012*[#   4]+0.009*[#   7]
          +0.009*[#  16]+0.009*[#  24]+0.008*[#  15]+0.008*[#  23]+0.008*[#   8]
          +0.006*[#  19]+0.006*[#  20]+0.006*[#  27]+0.006*[#  28]+0.001*[#   5]
          +0.001*[#  13]+0.001*[#  21]
    |psi|^2 = 0.990
==== e(  14) =    -0.42814 eV ==== 
     psi = 0.148*[#  18]+0.148*[#  26]+0.092*[#   2]+0.092*[#  10]+0.092*[#  30]
          +0.050*[#   6]+0.050*[#  14]+0.050*[#  22]+0.017*[#  17]+0.017*[#  25]
          +0.011*[#  19]+0.011*[#  20]+0.011*[#  27]+0.011*[#  28]+0.011*[#   3]
          +0.010*[#  12]+0.010*[#  32]+0.009*[#  11]+0.009*[#  31]+0.008*[#   4]
          +0.006*[#   1]+0.006*[#   9]+0.006*[#  29]+0.002*[#   7]+0.001*[#   5]
          +0.001*[#  13]+0.001*[#  21]+0.001*[#  16]+0.001*[#  24]
    |psi|^2 = 0.889
==== e(  15) =    -0.40511 eV ==== 
     psi = 0.161*[#   2]+0.161*[#  10]+0.161*[#  30]+0.046*[#   6]+0.046*[#  14]
          +0.046*[#  22]+0.035*[#   1]+0.035*[#   9]+0.035*[#  29]+0.032*[#  18]
          +0.032*[#  26]+0.019*[#  19]+0.019*[#  20]+0.019*[#  27]+0.019*[#  28]
          +0.011*[#   4]+0.009*[#  11]+0.009*[#  31]+0.008*[#   8]+0.007*[#  15]
          +0.007*[#  23]+0.006*[#  12]+0.006*[#  32]+0.006*[#  16]+0.006*[#  24]
          +0.005*[#   7]+0.005*[#   3]+0.004*[#  17]+0.004*[#  25]
    |psi|^2 = 0.962
==== e(  16) =    -0.04863 eV ==== 
     psi = 0.105*[#   2]+0.105*[#  10]+0.105*[#  30]+0.090*[#  18]+0.090*[#  26]
          +0.056*[#   6]+0.056*[#  14]+0.056*[#  22]+0.024*[#   1]+0.024*[#   9]
          +0.024*[#  29]+0.023*[#  19]+0.023*[#  20]+0.023*[#  27]+0.023*[#  28]
          +0.017*[#   4]+0.014*[#  11]+0.014*[#  17]+0.014*[#  25]+0.014*[#  31]
          +0.008*[#  12]+0.008*[#  32]+0.006*[#   3]+0.005*[#   8]+0.004*[#  15]
          +0.004*[#  23]+0.003*[#  16]+0.003*[#  24]+0.002*[#   7]+0.001*[#   5]
          +0.001*[#  13]+0.001*[#  21]
    |psi|^2 = 0.950

 k =   0.0000000000  0.2165063509  0.0000000000
==== e(   1) =   -17.53641 eV ==== 
     psi = 0.119*[#  17]+0.119*[#  25]+0.090*[#   5]+0.090*[#  13]+0.090*[#  21]
          +0.086*[#   1]+0.086*[#   9]+0.086*[#  29]+0.016*[#  18]+0.016*[#  26]
          +0.014*[#   7]+0.013*[#  16]+0.013*[#  24]+0.012*[#   2]+0.012*[#  10]
          +0.012*[#  30]+0.011*[#  15]+0.011*[#  23]+0.010*[#   8]+0.010*[#   3]
          +0.010*[#  12]+0.010*[#  32]+0.009*[#  11]+0.009*[#  31]+0.009*[#   4]
          +0.006*[#  19]+0.006*[#  20]+0.006*[#  27]+0.006*[#  28]
    |psi|^2 = 0.986
==== e(   2) =   -14.26859 eV ==== 
     psi = 0.074*[#   8]+0.066*[#  17]+0.066*[#  25]+0.061*[#  15]+0.061*[#  23]
          +0.061*[#   4]+0.050*[#  11]+0.050*[#  31]+0.035*[#  16]+0.035*[#  24]
          +0.035*[#  19]+0.035*[#  20]+0.035*[#  27]+0.035*[#  28]+0.028*[#  12]
          +0.028*[#  32]+0.026*[#   1]+0.026*[#   9]+0.026*[#  29]+0.024*[#   5]
          +0.024*[#  13]+0.024*[#  21]+0.023*[#   7]+0.018*[#   3]+0.009*[#  18]
          +0.009*[#  26]+0.004*[#   2]+0.004*[#  10]+0.004*[#  30]
    |psi|^2 = 0.978
==== e(   3) =   -12.95065 eV ==== 
     psi = 0.094*[#  19]+0.094*[#  20]+0.094*[#  27]+0.094*[#  28]+0.043*[#   1]
          +0.043*[#   9]+0.043*[#  29]+0.036*[#   7]+0.036*[#   5]+0.036*[#  13]
          +0.036*[#  16]+0.036*[#  21]+0.036*[#  24]+0.035*[#  15]+0.035*[#  23]
          +0.034*[#   8]+0.025*[#   3]+0.024*[#  12]+0.024*[#  32]+0.022*[#  11]
          +0.022*[#  31]+0.021*[#   4]+0.005*[#   2]+0.005*[#  10]+0.005*[#  30]
          
    |psi|^2 = 0.980
==== e(   4) =   -11.87283 eV ==== 
     psi = 0.070*[#   8]+0.065*[#   4]+0.057*[#  15]+0.057*[#  23]+0.054*[#  11]
          +0.054*[#  31]+0.052*[#  19]+0.052*[#  20]+0.052*[#  27]+0.052*[#  28]
          +0.037*[#  17]+0.037*[#  25]+0.032*[#  12]+0.032*[#  32]+0.031*[#  16]
          +0.031*[#  24]+0.028*[#   5]+0.028*[#  13]+0.028*[#  21]+0.025*[#   1]
          +0.025*[#   9]+0.025*[#  29]+0.021*[#   3]+0.018*[#   7]+0.005*[#  18]
          +0.005*[#  26]+0.003*[#   2]+0.003*[#  10]+0.003*[#  30]
    |psi|^2 = 0.983
==== e(   5) =   -10.69479 eV ==== 
     psi = 0.052*[#   8]+0.050*[#  15]+0.050*[#  23]+0.050*[#  19]+0.050*[#  20]
          +0.050*[#  27]+0.050*[#  28]+0.049*[#   3]+0.049*[#  12]+0.049*[#  32]
          +0.049*[#  11]+0.049*[#  31]+0.049*[#   4]+0.046*[#  16]+0.046*[#  24]
          +0.044*[#   7]+0.031*[#   5]+0.031*[#  13]+0.031*[#  21]+0.025*[#   1]
          +0.025*[#   9]+0.025*[#  29]+0.011*[#  17]+0.011*[#  25]+0.002*[#   2]
          +0.002*[#  10]+0.002*[#  30]+0.002*[#  18]+0.002*[#  26]
    |psi|^2 = 0.984
==== e(   6) =   -10.08414 eV ==== 
     psi = 0.063*[#   8]+0.062*[#  19]+0.062*[#  20]+0.062*[#  27]+0.062*[#  28]
          +0.058*[#   4]+0.051*[#  11]+0.051*[#  31]+0.051*[#  15]+0.051*[#  23]
          +0.045*[#   5]+0.045*[#  13]+0.045*[#  21]+0.037*[#  12]+0.037*[#  32]
          +0.032*[#   1]+0.032*[#   9]+0.032*[#  29]+0.029*[#   3]+0.027*[#  16]
          +0.027*[#  24]+0.015*[#   7]+0.004*[#   2]+0.004*[#  10]+0.004*[#  30]
          
    |psi|^2 = 0.989
==== e(   7) =    -8.56985 eV ==== 
     psi = 0.089*[#   6]+0.089*[#  14]+0.089*[#  22]+0.073*[#  18]+0.073*[#  26]
          +0.063*[#   2]+0.063*[#  10]+0.063*[#  30]+0.032*[#   7]+0.026*[#  16]
          +0.026*[#  24]+0.020*[#   3]+0.018*[#  12]+0.018*[#  32]+0.017*[#   1]
          +0.017*[#   9]+0.017*[#  29]+0.015*[#  17]+0.015*[#  25]+0.013*[#  15]
          +0.013*[#  23]+0.013*[#  11]+0.013*[#  31]+0.010*[#   4]+0.010*[#  19]
          +0.010*[#  20]+0.010*[#  27]+0.010*[#  28]+0.006*[#   8]+0.003*[#   5]
          +0.003*[#  13]+0.003*[#  21]
    |psi|^2 = 0.940
==== e(   8) =    -7.96643 eV ==== 
     psi = 0.087*[#   3]+0.080*[#   7]+0.068*[#  12]+0.068*[#  32]+0.065*[#  16]
          +0.065*[#  24]+0.053*[#  18]+0.053*[#  26]+0.035*[#  15]+0.035*[#  23]
          +0.030*[#  11]+0.030*[#  31]+0.026*[#   2]+0.026*[#  10]+0.026*[#  30]
          +0.026*[#   6]+0.026*[#  14]+0.026*[#  22]+0.020*[#   8]+0.014*[#   5]
          +0.014*[#  13]+0.014*[#  21]+0.013*[#  19]+0.013*[#  20]+0.013*[#  27]
          +0.013*[#  28]+0.011*[#   4]+0.004*[#   1]+0.004*[#   9]+0.004*[#  29]
          
    |psi|^2 = 0.967
==== e(   9) =    -3.90384 eV ==== 
     psi = 0.091*[#   6]+0.091*[#  14]+0.091*[#  22]+0.090*[#  18]+0.090*[#  26]
          +0.049*[#   2]+0.049*[#  10]+0.049*[#  30]+0.024*[#   4]+0.023*[#  11]
          +0.023*[#  31]+0.022*[#   8]+0.022*[#  12]+0.022*[#  32]+0.022*[#   3]
          +0.021*[#  15]+0.021*[#  23]+0.018*[#  16]+0.018*[#  24]+0.018*[#  17]
          +0.018*[#  25]+0.017*[#   7]+0.016*[#  19]+0.016*[#  20]+0.016*[#  27]
          +0.016*[#  28]+0.011*[#   1]+0.011*[#   9]+0.011*[#  29]+0.001*[#   5]
          +0.001*[#  13]+0.001*[#  21]
    |psi|^2 = 0.992
==== e(  10) =    -3.59848 eV ==== 
     psi = 0.068*[#   7]+0.063*[#  16]+0.063*[#  24]+0.063*[#   4]+0.060*[#  11]
          +0.060*[#  31]+0.054*[#  12]+0.054*[#  32]+0.054*[#  15]+0.054*[#  23]
          +0.052*[#   3]+0.049*[#   8]+0.026*[#   6]+0.026*[#  14]+0.026*[#  22]
          +0.021*[#  19]+0.021*[#  20]+0.021*[#  27]+0.021*[#  28]+0.018*[#   1]
          +0.018*[#   9]+0.018*[#  29]+0.013*[#   5]+0.013*[#  13]+0.013*[#  21]
          +0.013*[#   2]+0.013*[#  10]+0.013*[#  30]+0.003*[#  18]+0.003*[#  26]
          
    |psi|^2 = 0.994
==== e(  11) =    -3.15492 eV ==== 
     psi = 0.070*[#   3]+0.062*[#  18]+0.062*[#  26]+0.061*[#   7]+0.061*[#  12]
          +0.061*[#  32]+0.055*[#  16]+0.055*[#  24]+0.044*[#  11]+0.044*[#  31]
          +0.043*[#  15]+0.043*[#  23]+0.037*[#   8]+0.035*[#   4]+0.019*[#   6]
          +0.019*[#  14]+0.019*[#  22]+0.017*[#  17]+0.017*[#  25]+0.015*[#   1]
          +0.015*[#   9]+0.015*[#  29]+0.014*[#   2]+0.014*[#  10]+0.014*[#  30]
          +0.014*[#  19]+0.014*[#  20]+0.014*[#  27]+0.014*[#  28]+0.008*[#   5]
          +0.008*[#  13]+0.008*[#  21]
    |psi|^2 = 0.993
==== e(  12) =    -2.36326 eV ==== 
     psi = 0.155*[#   6]+0.155*[#  14]+0.155*[#  22]+0.076*[#   2]+0.076*[#  10]
          +0.076*[#  30]+0.028*[#   3]+0.023*[#  12]+0.023*[#  32]+0.020*[#   1]
          +0.020*[#   9]+0.020*[#  29]+0.017*[#   7]+0.014*[#  16]+0.014*[#  24]
          +0.013*[#  11]+0.013*[#  31]+0.011*[#  19]+0.011*[#  20]+0.011*[#  27]
          +0.011*[#  28]+0.008*[#  15]+0.008*[#  23]+0.008*[#   4]+0.006*[#  18]
          +0.006*[#  26]+0.005*[#   8]+0.003*[#   5]+0.003*[#  13]+0.003*[#  21]
          +0.002*[#  17]+0.002*[#  25]
    |psi|^2 = 0.994
==== e(  13) =    -1.58313 eV ==== 
     psi = 0.142*[#  18]+0.142*[#  26]+0.126*[#   2]+0.126*[#  10]+0.126*[#  30]
          +0.047*[#   6]+0.047*[#  14]+0.047*[#  22]+0.023*[#  17]+0.023*[#  25]
          +0.015*[#   1]+0.015*[#   9]+0.015*[#  29]+0.009*[#   4]+0.008*[#  11]
          +0.008*[#  31]+0.007*[#   7]+0.007*[#  12]+0.007*[#  32]+0.006*[#  16]
          +0.006*[#  24]+0.006*[#   3]+0.005*[#  15]+0.005*[#  23]+0.005*[#   8]
          +0.002*[#  19]+0.002*[#  20]+0.002*[#  27]+0.002*[#  28]+0.002*[#   5]
          +0.002*[#  13]+0.002*[#  21]
    |psi|^2 = 0.989
==== e(  14) =    -0.22079 eV ==== 
     psi = 0.168*[#  18]+0.168*[#  26]+0.119*[#   2]+0.119*[#  10]+0.119*[#  30]
          +0.013*[#  17]+0.013*[#  25]+0.010*[#   1]+0.010*[#   9]+0.010*[#  29]
          +0.008*[#  19]+0.008*[#  20]+0.008*[#  27]+0.008*[#  28]+0.004*[#   6]
          +0.004*[#   8]+0.004*[#  14]+0.004*[#   7]+0.004*[#  15]+0.004*[#  16]
          +0.004*[#  22]+0.004*[#  23]+0.004*[#  24]+0.004*[#   3]+0.003*[#  12]
          +0.003*[#  32]+0.003*[#  11]+0.003*[#  31]+0.003*[#   4]+0.001*[#   5]
          +0.001*[#  13]+0.001*[#  21]
    |psi|^2 = 0.842
==== e(  15) =     0.16399 eV ==== 
     psi = 0.131*[#   2]+0.131*[#  10]+0.131*[#  30]+0.097*[#   6]+0.097*[#  14]
          +0.097*[#  22]+0.026*[#   1]+0.026*[#   9]+0.026*[#  29]+0.025*[#  19]
          +0.025*[#  20]+0.025*[#  27]+0.025*[#  28]+0.020*[#   4]+0.017*[#  11]
          +0.017*[#  31]+0.013*[#  12]+0.013*[#  32]+0.010*[#   3]+0.004*[#   8]
          +0.004*[#  15]+0.004*[#  23]+0.003*[#  16]+0.003*[#  18]+0.003*[#  24]
          +0.003*[#  26]+0.003*[#   7]+0.001*[#   5]+0.001*[#  13]+0.001*[#  21]
          
    |psi|^2 = 0.983
==== e(  16) =     0.63610 eV ==== 
     psi = 0.104*[#  18]+0.104*[#  26]+0.086*[#   2]+0.086*[#  10]+0.086*[#  30]
          +0.070*[#   6]+0.070*[#  14]+0.070*[#  22]+0.021*[#  19]+0.021*[#  20]
          +0.021*[#  27]+0.021*[#  28]+0.020*[#   1]+0.020*[#   9]+0.020*[#  29]
          +0.019*[#   4]+0.019*[#  17]+0.019*[#  25]+0.016*[#  11]+0.016*[#  31]
          +0.009*[#  12]+0.009*[#  32]+0.005*[#   3]+0.005*[#   8]+0.004*[#  15]
          +0.004*[#  23]+0.002*[#  16]+0.002*[#  24]+0.001*[#   7]
    |psi|^2 = 0.956

 k =   0.0000000000  0.2886751346  0.0000000000
==== e(   1) =   -17.39765 eV ==== 
     psi = 0.112*[#  17]+0.112*[#  25]+0.082*[#   5]+0.082*[#  13]+0.082*[#  21]
          +0.078*[#   1]+0.078*[#   9]+0.078*[#  29]+0.017*[#   7]+0.017*[#  16]
          +0.017*[#  24]+0.017*[#   8]+0.017*[#  15]+0.017*[#  23]+0.016*[#  18]
          +0.016*[#  26]+0.015*[#   4]+0.014*[#  11]+0.014*[#  31]+0.013*[#  12]
          +0.013*[#  32]+0.012*[#   3]+0.011*[#   2]+0.011*[#  10]+0.011*[#  30]
          +0.009*[#  19]+0.009*[#  20]+0.009*[#  27]+0.009*[#  28]
    |psi|^2 = 0.985
==== e(   2) =   -14.70427 eV ==== 
     psi = 0.067*[#  17]+0.067*[#  25]+0.067*[#   8]+0.056*[#  15]+0.056*[#  23]
          +0.055*[#   4]+0.046*[#  11]+0.046*[#  31]+0.035*[#  19]+0.035*[#  20]
          +0.035*[#  27]+0.035*[#  28]+0.034*[#  16]+0.034*[#  24]+0.030*[#   1]
          +0.030*[#   9]+0.030*[#  29]+0.030*[#   5]+0.030*[#  13]+0.030*[#  21]
          +0.028*[#  12]+0.028*[#  32]+0.024*[#   7]+0.019*[#   3]+0.009*[#  18]
          +0.009*[#  26]+0.004*[#   2]+0.004*[#  10]+0.004*[#  30]
    |psi|^2 = 0.977
==== e(   3) =   -13.04589 eV ==== 
     psi = 0.095*[#  19]+0.095*[#  20]+0.095*[#  27]+0.095*[#  28]+0.046*[#   1]
          +0.046*[#   9]+0.046*[#  29]+0.039*[#   5]+0.039*[#  13]+0.039*[#  21]
          +0.035*[#   7]+0.034*[#  16]+0.034*[#  24]+0.032*[#  15]+0.032*[#  23]
          +0.031*[#   8]+0.024*[#   3]+0.022*[#  12]+0.022*[#  32]+0.020*[#  11]
          +0.020*[#  31]+0.019*[#   4]+0.006*[#   2]+0.006*[#  10]+0.006*[#  30]
          
    |psi|^2 = 0.980
==== e(   4) =   -11.89997 eV ==== 
     psi = 0.056*[#   4]+0.056*[#   8]+0.051*[#  11]+0.051*[#  31]+0.049*[#  15]
          +0.049*[#  23]+0.044*[#  19]+0.044*[#  20]+0.044*[#  27]+0.044*[#  28]
          +0.041*[#  12]+0.041*[#  32]+0.038*[#   5]+0.038*[#  13]+0.038*[#  21]
          +0.035*[#   3]+0.033*[#  16]+0.033*[#  24]+0.031*[#  17]+0.031*[#  25]
          +0.030*[#   1]+0.030*[#   9]+0.030*[#  29]+0.026*[#   7]+0.004*[#  18]
          +0.004*[#  26]+0.002*[#   2]+0.002*[#  10]+0.002*[#  30]
    |psi|^2 = 0.982
==== e(   5) =   -10.37717 eV ==== 
     psi = 0.067*[#   8]+0.060*[#   4]+0.060*[#  15]+0.060*[#  23]+0.056*[#  19]
          +0.056*[#  20]+0.056*[#  27]+0.056*[#  28]+0.055*[#  11]+0.055*[#  31]
          +0.046*[#  16]+0.046*[#  24]+0.044*[#  12]+0.044*[#  32]+0.039*[#   3]
          +0.039*[#   7]+0.017*[#   5]+0.017*[#  13]+0.017*[#  21]+0.017*[#   1]
          +0.017*[#   9]+0.017*[#  29]+0.016*[#  17]+0.016*[#  25]+0.003*[#  18]
          +0.003*[#  26]+0.002*[#   2]+0.002*[#  10]+0.002*[#  30]
    |psi|^2 = 0.985
==== e(   6) =    -9.76627 eV ==== 
     psi = 0.070*[#   8]+0.064*[#   4]+0.063*[#  19]+0.063*[#  20]+0.063*[#  27]
          +0.063*[#  28]+0.056*[#  15]+0.056*[#  23]+0.055*[#  11]+0.055*[#  31]
          +0.039*[#   5]+0.039*[#  13]+0.039*[#  21]+0.036*[#  12]+0.036*[#  32]
          +0.029*[#  16]+0.029*[#  24]+0.027*[#   3]+0.027*[#   1]+0.027*[#   9]
          +0.027*[#  29]+0.015*[#   7]+0.004*[#   2]+0.004*[#  10]+0.004*[#  30]
          
    |psi|^2 = 0.989
==== e(   7) =    -8.35316 eV ==== 
     psi = 0.097*[#   6]+0.097*[#  14]+0.097*[#  22]+0.088*[#  18]+0.088*[#  26]
          +0.071*[#   2]+0.071*[#  10]+0.071*[#  30]+0.020*[#   7]+0.016*[#  16]
          +0.016*[#  24]+0.014*[#  17]+0.014*[#  25]+0.013*[#   1]+0.013*[#   9]
          +0.013*[#  29]+0.012*[#   3]+0.011*[#  12]+0.011*[#  32]+0.011*[#  11]
          +0.011*[#  31]+0.011*[#   4]+0.010*[#  19]+0.010*[#  20]+0.010*[#  27]
          +0.010*[#  28]+0.009*[#  15]+0.009*[#  23]+0.005*[#   8]+0.001*[#   5]
          +0.001*[#  13]+0.001*[#  21]
    |psi|^2 = 0.937
==== e(   8) =    -7.57199 eV ==== 
     psi = 0.087*[#   3]+0.083*[#   7]+0.071*[#  16]+0.071*[#  24]+0.070*[#  12]
          +0.070*[#  32]+0.045*[#  15]+0.045*[#  23]+0.040*[#  18]+0.040*[#  26]
          +0.035*[#  11]+0.035*[#  31]+0.032*[#   8]+0.021*[#  19]+0.021*[#  20]
          +0.021*[#  27]+0.021*[#  28]+0.018*[#   2]+0.018*[#  10]+0.018*[#  30]
          +0.018*[#   4]+0.017*[#   6]+0.017*[#  14]+0.017*[#  22]+0.011*[#   5]
          +0.011*[#  13]+0.011*[#  21]+0.004*[#   1]+0.004*[#   9]+0.004*[#  29]
          
    |psi|^2 = 0.977
==== e(   9) =    -4.55944 eV ==== 
     psi = 0.087*[#   6]+0.087*[#  14]+0.087*[#  22]+0.085*[#  18]+0.085*[#  26]
          +0.053*[#   2]+0.053*[#  10]+0.053*[#  30]+0.028*[#   3]+0.026*[#  12]
          +0.026*[#  32]+0.023*[#   8]+0.022*[#  15]+0.022*[#  23]+0.021*[#  11]
          +0.021*[#  31]+0.020*[#  16]+0.020*[#  24]+0.019*[#   4]+0.019*[#   7]
          +0.017*[#  17]+0.017*[#  25]+0.014*[#  19]+0.014*[#  20]+0.014*[#  27]
          +0.014*[#  28]+0.012*[#   1]+0.012*[#   9]+0.012*[#  29]+0.002*[#   5]
          +0.002*[#  13]+0.002*[#  21]
    |psi|^2 = 0.990
==== e(  10) =    -4.19602 eV ==== 
     psi = 0.072*[#   7]+0.063*[#  16]+0.063*[#  24]+0.057*[#   4]+0.056*[#  11]
          +0.056*[#  31]+0.054*[#  12]+0.054*[#  32]+0.053*[#   3]+0.047*[#  15]
          +0.047*[#  23]+0.038*[#   8]+0.024*[#   1]+0.024*[#   9]+0.024*[#  29]
          +0.022*[#   6]+0.022*[#  14]+0.022*[#  22]+0.019*[#   5]+0.019*[#  13]
          +0.019*[#  21]+0.018*[#  19]+0.018*[#  20]+0.018*[#  27]+0.018*[#  28]
          +0.014*[#   2]+0.014*[#  10]+0.014*[#  30]+0.010*[#  18]+0.010*[#  26]
          +0.002*[#  17]+0.002*[#  25]
    |psi|^2 = 0.994
==== e(  11) =    -3.69422 eV ==== 
     psi = 0.076*[#   3]+0.068*[#   7]+0.065*[#  12]+0.065*[#  32]+0.059*[#  16]
          +0.059*[#  24]+0.048*[#  18]+0.048*[#  26]+0.043*[#  11]+0.043*[#  31]
          +0.042*[#  15]+0.042*[#  23]+0.033*[#   8]+0.031*[#   4]+0.019*[#   6]
          +0.019*[#  14]+0.019*[#  22]+0.017*[#   1]+0.017*[#   9]+0.017*[#  29]
          +0.015*[#  17]+0.015*[#  25]+0.014*[#   2]+0.014*[#  10]+0.014*[#  30]
          +0.014*[#  19]+0.014*[#  20]+0.014*[#  27]+0.014*[#  28]+0.012*[#   5]
          +0.012*[#  13]+0.012*[#  21]
    |psi|^2 = 0.992
==== e(  12) =    -2.63932 eV ==== 
     psi = 0.164*[#   6]+0.164*[#  14]+0.164*[#  22]+0.082*[#   2]+0.082*[#  10]
          +0.082*[#  30]+0.021*[#   3]+0.020*[#   1]+0.020*[#   9]+0.020*[#  29]
          +0.017*[#  12]+0.017*[#  32]+0.014*[#   7]+0.011*[#  16]+0.011*[#  19]
          +0.011*[#  20]+0.011*[#  24]+0.011*[#  27]+0.011*[#  28]+0.009*[#  11]
          +0.009*[#  31]+0.007*[#  18]+0.007*[#  26]+0.005*[#   4]+0.005*[#  15]
          +0.005*[#  23]+0.003*[#   5]+0.003*[#  13]+0.003*[#  17]+0.003*[#  21]
          +0.003*[#  25]+0.002*[#   8]
    |psi|^2 = 0.994
==== e(  13) =    -1.73548 eV ==== 
     psi = 0.151*[#  18]+0.151*[#  26]+0.132*[#   2]+0.132*[#  10]+0.132*[#  30]
          +0.044*[#   6]+0.044*[#  14]+0.044*[#  22]+0.023*[#  17]+0.023*[#  25]
          +0.014*[#   1]+0.014*[#   9]+0.014*[#  29]+0.007*[#   4]+0.006*[#  11]
          +0.006*[#  31]+0.006*[#   7]+0.005*[#  16]+0.005*[#  24]+0.004*[#  12]
          +0.004*[#  32]+0.003*[#  15]+0.003*[#  23]+0.003*[#   5]+0.003*[#  13]
          +0.003*[#  21]+0.003*[#   8]+0.002*[#   3]+0.001*[#  19]+0.001*[#  20]
          +0.001*[#  27]+0.001*[#  28]
    |psi|^2 = 0.989
==== e(  14) =    -0.00166 eV ==== 
     psi = 0.161*[#  18]+0.161*[#  26]+0.123*[#   2]+0.123*[#  10]+0.123*[#  30]
          +0.010*[#  17]+0.010*[#  25]+0.009*[#   1]+0.009*[#   9]+0.009*[#  29]
          +0.008*[#  19]+0.008*[#  20]+0.008*[#  27]+0.008*[#  28]+0.006*[#   8]
          +0.005*[#  15]+0.005*[#  23]+0.005*[#  16]+0.005*[#  24]+0.005*[#   7]
          +0.004*[#   3]+0.004*[#  12]+0.004*[#  32]+0.004*[#   4]+0.004*[#  11]
          +0.004*[#  31]+0.004*[#   6]+0.004*[#  14]+0.004*[#  22]
    |psi|^2 = 0.837
==== e(  15) =     0.74642 eV ==== 
     psi = 0.137*[#   2]+0.137*[#  10]+0.137*[#  30]+0.094*[#   6]+0.094*[#  14]
          +0.094*[#  22]+0.024*[#   1]+0.024*[#   9]+0.024*[#  29]+0.022*[#  19]
          +0.022*[#  20]+0.022*[#  27]+0.022*[#  28]+0.021*[#   4]+0.017*[#  11]
          +0.017*[#  31]+0.010*[#  12]+0.010*[#  32]+0.007*[#   3]+0.005*[#  18]
          +0.005*[#  26]+0.002*[#   8]+0.002*[#  15]+0.002*[#  23]+0.002*[#  16]
          +0.002*[#  24]+0.002*[#   5]+0.002*[#   7]+0.002*[#  13]+0.002*[#  21]
          
    |psi|^2 = 0.967
==== e(  16) =     1.30362 eV ==== 
     psi = 0.115*[#  18]+0.115*[#  26]+0.081*[#   6]+0.081*[#  14]+0.081*[#  22]
          +0.069*[#   2]+0.069*[#  10]+0.069*[#  30]+0.021*[#  19]+0.021*[#  20]
          +0.021*[#  27]+0.021*[#  28]+0.020*[#  17]+0.020*[#  25]+0.018*[#   4]
          +0.015*[#   1]+0.015*[#   9]+0.015*[#  11]+0.015*[#  29]+0.015*[#  31]
          +0.010*[#  12]+0.010*[#  32]+0.007*[#   3]+0.005*[#   8]+0.004*[#  15]
          +0.004*[#  23]+0.002*[#  16]+0.002*[#  24]+0.001*[#   7]
    |psi|^2 = 0.943

 k =   0.0000000000  0.3608439182  0.0000000000
==== e(   1) =   -17.22531 eV ==== 
     psi = 0.105*[#  17]+0.105*[#  25]+0.073*[#   5]+0.073*[#  13]+0.073*[#  21]
          +0.070*[#   1]+0.070*[#   9]+0.070*[#  29]+0.024*[#   8]+0.023*[#  15]
          +0.023*[#  23]+0.021*[#  16]+0.021*[#  24]+0.020*[#   4]+0.020*[#   7]
          +0.019*[#  11]+0.019*[#  31]+0.016*[#  12]+0.016*[#  32]+0.015*[#  18]
          +0.015*[#  26]+0.015*[#   3]+0.011*[#  19]+0.011*[#  20]+0.011*[#  27]
          +0.011*[#  28]+0.011*[#   2]+0.011*[#  10]+0.011*[#  30]
    |psi|^2 = 0.984
==== e(   2) =   -15.11340 eV ==== 
     psi = 0.068*[#  17]+0.068*[#  25]+0.059*[#   8]+0.051*[#  15]+0.051*[#  23]
          +0.049*[#   4]+0.042*[#  11]+0.042*[#  31]+0.036*[#   5]+0.036*[#  13]
          +0.036*[#  21]+0.035*[#   1]+0.035*[#   9]+0.035*[#  29]+0.034*[#  19]
          +0.034*[#  20]+0.034*[#  27]+0.034*[#  28]+0.033*[#  16]+0.033*[#  24]
          +0.027*[#  12]+0.027*[#  32]+0.024*[#   7]+0.020*[#   3]+0.010*[#  18]
          +0.010*[#  26]+0.005*[#   2]+0.005*[#  10]+0.005*[#  30]
    |psi|^2 = 0.976
==== e(   3) =   -13.13040 eV ==== 
     psi = 0.096*[#  19]+0.096*[#  20]+0.096*[#  27]+0.096*[#  28]+0.049*[#   1]
          +0.049*[#   9]+0.049*[#  29]+0.042*[#   5]+0.042*[#  13]+0.042*[#  21]
          +0.033*[#   7]+0.032*[#  16]+0.032*[#  24]+0.030*[#  15]+0.030*[#  23]
          +0.029*[#   8]+0.022*[#   3]+0.021*[#  12]+0.021*[#  32]+0.018*[#  11]
          +0.018*[#  31]+0.017*[#   4]+0.006*[#   2]+0.006*[#  10]+0.006*[#  30]
          
    |psi|^2 = 0.980
==== e(   4) =   -12.00605 eV ==== 
     psi = 0.052*[#   4]+0.050*[#  11]+0.050*[#  31]+0.049*[#   8]+0.046*[#  12]
          +0.046*[#  32]+0.045*[#  15]+0.045*[#  23]+0.044*[#   3]+0.042*[#   5]
          +0.042*[#  13]+0.042*[#  21]+0.039*[#  19]+0.039*[#  20]+0.039*[#  27]
          +0.039*[#  28]+0.036*[#  16]+0.036*[#  24]+0.032*[#   7]+0.031*[#   1]
          +0.031*[#   9]+0.031*[#  29]+0.028*[#  17]+0.028*[#  25]+0.004*[#  18]
          +0.004*[#  26]+0.002*[#   2]+0.002*[#  10]+0.002*[#  30]
    |psi|^2 = 0.980
==== e(   5) =    -9.93495 eV ==== 
     psi = 0.076*[#   8]+0.069*[#   4]+0.065*[#  15]+0.065*[#  23]+0.061*[#  19]
          +0.061*[#  20]+0.061*[#  27]+0.061*[#  28]+0.059*[#  11]+0.059*[#  31]
          +0.043*[#  16]+0.043*[#  24]+0.040*[#  12]+0.040*[#  32]+0.032*[#   7]
          +0.030*[#   3]+0.016*[#  17]+0.016*[#  25]+0.012*[#   1]+0.012*[#   9]
          +0.012*[#  29]+0.010*[#   5]+0.010*[#  13]+0.010*[#  21]+0.004*[#  18]
          +0.004*[#  26]+0.002*[#   2]+0.002*[#  10]+0.002*[#  30]
    |psi|^2 = 0.986
==== e(   6) =    -9.41669 eV ==== 
     psi = 0.079*[#   8]+0.070*[#   4]+0.065*[#  19]+0.065*[#  20]+0.065*[#  27]
          +0.065*[#  28]+0.063*[#  15]+0.063*[#  23]+0.058*[#  11]+0.058*[#  31]
          +0.035*[#  12]+0.035*[#  32]+0.031*[#   5]+0.031*[#  13]+0.031*[#  21]
          +0.030*[#  16]+0.030*[#  24]+0.023*[#   3]+0.021*[#   1]+0.021*[#   9]
          +0.021*[#  29]+0.013*[#   7]+0.004*[#   2]+0.004*[#  10]+0.004*[#  30]
          
    |psi|^2 = 0.989
==== e(   7) =    -8.12700 eV ==== 
     psi = 0.094*[#   6]+0.094*[#  14]+0.094*[#  22]+0.090*[#  18]+0.090*[#  26]
          +0.070*[#   2]+0.070*[#  10]+0.070*[#  30]+0.020*[#   7]+0.016*[#  16]
          +0.016*[#  24]+0.014*[#  19]+0.014*[#  20]+0.014*[#  27]+0.014*[#  28]
          +0.013*[#   4]+0.013*[#  11]+0.013*[#  31]+0.013*[#  12]+0.013*[#  32]
          +0.013*[#   3]+0.012*[#  17]+0.012*[#  25]+0.011*[#   1]+0.011*[#   9]
          +0.011*[#  29]+0.009*[#  15]+0.009*[#  23]+0.006*[#   8]
    |psi|^2 = 0.942
==== e(   8) =    -7.26264 eV ==== 
     psi = 0.079*[#   3]+0.076*[#   7]+0.067*[#  16]+0.067*[#  24]+0.064*[#  12]
          +0.064*[#  32]+0.050*[#  15]+0.050*[#  23]+0.041*[#   8]+0.040*[#  18]
          +0.040*[#  26]+0.036*[#  11]+0.036*[#  31]+0.027*[#  19]+0.027*[#  20]
          +0.027*[#  27]+0.027*[#  28]+0.021*[#   4]+0.020*[#   6]+0.020*[#  14]
          +0.020*[#  22]+0.019*[#   2]+0.019*[#  10]+0.019*[#  30]+0.006*[#   5]
          +0.006*[#  13]+0.006*[#  21]+0.003*[#  17]+0.003*[#  25]
    |psi|^2 = 0.980
==== e(   9) =    -5.17163 eV ==== 
     psi = 0.080*[#   6]+0.080*[#  14]+0.080*[#  22]+0.077*[#  18]+0.077*[#  26]
          +0.053*[#   2]+0.053*[#  10]+0.053*[#  30]+0.038*[#   3]+0.032*[#  12]
          +0.032*[#  32]+0.026*[#   8]+0.026*[#  15]+0.026*[#  23]+0.025*[#  16]
          +0.025*[#  24]+0.024*[#   7]+0.021*[#  11]+0.021*[#  31]+0.016*[#   4]
          +0.015*[#  17]+0.015*[#  25]+0.012*[#  19]+0.012*[#  20]+0.012*[#  27]
          +0.012*[#  28]+0.011*[#   1]+0.011*[#   9]+0.011*[#  29]+0.004*[#   5]
          +0.004*[#  13]+0.004*[#  21]
    |psi|^2 = 0.987
==== e(  10) =    -4.72884 eV ==== 
     psi = 0.070*[#   7]+0.059*[#  16]+0.059*[#  24]+0.049*[#   3]+0.048*[#  12]
          +0.048*[#  32]+0.047*[#  11]+0.047*[#  31]+0.046*[#   4]+0.035*[#  15]
          +0.035*[#  23]+0.032*[#   1]+0.032*[#   9]+0.032*[#  29]+0.031*[#   6]
          +0.031*[#  14]+0.031*[#  22]+0.026*[#  18]+0.026*[#  26]+0.023*[#   5]
          +0.023*[#  13]+0.023*[#  21]+0.023*[#   8]+0.020*[#   2]+0.020*[#  10]
          +0.020*[#  30]+0.012*[#  19]+0.012*[#  20]+0.012*[#  27]+0.012*[#  28]
          +0.005*[#  17]+0.005*[#  25]
    |psi|^2 = 0.993
==== e(  11) =    -4.15563 eV ==== 
     psi = 0.087*[#   3]+0.080*[#   7]+0.073*[#  12]+0.073*[#  32]+0.067*[#  16]
          +0.067*[#  24]+0.044*[#  11]+0.044*[#  31]+0.041*[#  15]+0.041*[#  23]
          +0.033*[#  18]+0.033*[#  26]+0.029*[#   4]+0.028*[#   8]+0.017*[#   1]
          +0.017*[#   5]+0.017*[#   9]+0.017*[#  13]+0.017*[#  21]+0.017*[#  29]
          +0.015*[#   6]+0.015*[#  14]+0.015*[#  22]+0.013*[#  17]+0.013*[#  25]
          +0.011*[#   2]+0.011*[#  10]+0.011*[#  30]+0.011*[#  19]+0.011*[#  20]
          +0.011*[#  27]+0.011*[#  28]
    |psi|^2 = 0.992
==== e(  12) =    -2.86134 eV ==== 
     psi = 0.169*[#   6]+0.169*[#  14]+0.169*[#  22]+0.086*[#   2]+0.086*[#  10]
          +0.086*[#  30]+0.020*[#   1]+0.020*[#   9]+0.020*[#  29]+0.016*[#   3]
          +0.013*[#  12]+0.013*[#  32]+0.012*[#   7]+0.011*[#  19]+0.011*[#  20]
          +0.011*[#  27]+0.011*[#  28]+0.009*[#  16]+0.009*[#  24]+0.008*[#  18]
          +0.008*[#  26]+0.007*[#  11]+0.007*[#  31]+0.004*[#  17]+0.004*[#  25]
          +0.003*[#   4]+0.003*[#  15]+0.003*[#  23]+0.002*[#   5]+0.002*[#  13]
          +0.002*[#  21]
    |psi|^2 = 0.994
==== e(  13) =    -1.87684 eV ==== 
     psi = 0.157*[#  18]+0.157*[#  26]+0.134*[#   2]+0.134*[#  10]+0.134*[#  30]
          +0.043*[#   6]+0.043*[#  14]+0.043*[#  22]+0.022*[#  17]+0.022*[#  25]
          +0.013*[#   1]+0.013*[#   9]+0.013*[#  29]+0.006*[#   4]+0.005*[#   7]
          +0.005*[#  11]+0.005*[#  31]+0.004*[#   5]+0.004*[#  13]+0.004*[#  21]
          +0.004*[#  16]+0.004*[#  24]+0.002*[#  12]+0.002*[#  15]+0.002*[#  23]
          +0.002*[#  32]+0.002*[#   8]+0.001*[#   3]
    |psi|^2 = 0.990
==== e(  14) =     0.22736 eV ==== 
     psi = 0.158*[#  18]+0.158*[#  26]+0.127*[#   2]+0.127*[#  10]+0.127*[#  30]
          +0.009*[#   1]+0.009*[#   9]+0.009*[#  29]+0.007*[#  17]+0.007*[#  25]
          +0.007*[#  19]+0.007*[#  20]+0.007*[#  27]+0.007*[#  28]+0.006*[#   8]
          +0.006*[#  15]+0.006*[#  23]+0.006*[#   7]+0.006*[#  16]+0.006*[#  24]
          +0.004*[#   3]+0.004*[#  12]+0.004*[#  32]+0.004*[#  11]+0.004*[#  31]
          +0.004*[#   4]+0.003*[#   6]+0.003*[#  14]+0.003*[#  22]
    |psi|^2 = 0.837
==== e(  15) =     1.27324 eV ==== 
     psi = 0.145*[#   2]+0.145*[#  10]+0.145*[#  30]+0.082*[#   6]+0.082*[#  14]
          +0.082*[#  22]+0.021*[#   1]+0.021*[#   9]+0.021*[#  29]+0.019*[#   4]
          +0.018*[#  19]+0.018*[#  20]+0.018*[#  27]+0.018*[#  28]+0.015*[#  11]
          +0.015*[#  31]+0.014*[#  18]+0.014*[#  26]+0.007*[#  12]+0.007*[#  32]
          +0.003*[#   3]+0.002*[#   5]+0.002*[#  13]+0.002*[#  21]+0.002*[#  17]
          +0.002*[#  25]+0.001*[#   7]+0.001*[#  16]+0.001*[#  24]+0.001*[#   8]
          +0.001*[#  15]+0.001*[#  23]
    |psi|^2 = 0.927
==== e(  16) =     1.94165 eV ==== 
     psi = 0.114*[#  18]+0.114*[#  26]+0.095*[#   6]+0.095*[#  14]+0.095*[#  22]
          +0.051*[#   2]+0.051*[#  10]+0.051*[#  30]+0.022*[#  19]+0.022*[#  20]
          +0.022*[#  27]+0.022*[#  28]+0.018*[#  17]+0.018*[#  25]+0.016*[#   4]
          +0.015*[#  11]+0.015*[#  31]+0.013*[#   1]+0.013*[#   9]+0.013*[#  29]
          +0.012*[#  12]+0.012*[#  32]+0.011*[#   3]+0.005*[#   8]+0.004*[#  15]
          +0.004*[#  23]+0.003*[#  16]+0.003*[#  24]+0.002*[#   7]
    |psi|^2 = 0.933

 k =   0.0000000000  0.4330127019  0.0000000000
==== e(   1) =   -17.02939 eV ==== 
     psi = 0.100*[#  17]+0.100*[#  25]+0.066*[#   5]+0.066*[#  13]+0.066*[#  21]
          +0.062*[#   1]+0.062*[#   9]+0.062*[#  29]+0.031*[#   8]+0.028*[#  15]
          +0.028*[#  23]+0.026*[#   4]+0.024*[#  16]+0.024*[#  24]+0.024*[#  11]
          +0.024*[#  31]+0.022*[#   7]+0.019*[#  12]+0.019*[#  32]+0.016*[#   3]
          +0.015*[#  18]+0.015*[#  26]+0.013*[#  19]+0.013*[#  20]+0.013*[#  27]
          +0.013*[#  28]+0.010*[#   2]+0.010*[#  10]+0.010*[#  30]
    |psi|^2 = 0.982
==== e(   2) =   -15.48161 eV ==== 
     psi = 0.070*[#  17]+0.070*[#  25]+0.052*[#   8]+0.045*[#  15]+0.045*[#  23]
          +0.043*[#   4]+0.042*[#   5]+0.042*[#  13]+0.042*[#  21]+0.040*[#   1]
          +0.040*[#   9]+0.040*[#  29]+0.038*[#  11]+0.038*[#  31]+0.033*[#  19]
          +0.033*[#  20]+0.033*[#  27]+0.033*[#  28]+0.031*[#  16]+0.031*[#  24]
          +0.026*[#  12]+0.026*[#  32]+0.024*[#   7]+0.020*[#   3]+0.010*[#  18]
          +0.010*[#  26]+0.006*[#   2]+0.006*[#  10]+0.006*[#  30]
    |psi|^2 = 0.976
==== e(   3) =   -13.19555 eV ==== 
     psi = 0.097*[#  19]+0.097*[#  20]+0.097*[#  27]+0.097*[#  28]+0.051*[#   1]
          +0.051*[#   9]+0.051*[#  29]+0.044*[#   5]+0.044*[#  13]+0.044*[#  21]
          +0.032*[#   7]+0.031*[#  16]+0.031*[#  24]+0.028*[#  15]+0.028*[#  23]
          +0.027*[#   8]+0.021*[#   3]+0.019*[#  12]+0.019*[#  32]+0.016*[#  11]
          +0.016*[#  31]+0.015*[#   4]+0.006*[#   2]+0.006*[#  10]+0.006*[#  30]
          
    |psi|^2 = 0.979
==== e(   4) =   -12.10663 eV ==== 
     psi = 0.050*[#   4]+0.050*[#  11]+0.050*[#  31]+0.049*[#   3]+0.049*[#  12]
          +0.049*[#  32]+0.045*[#   8]+0.044*[#   5]+0.044*[#  13]+0.044*[#  21]
          +0.043*[#  15]+0.043*[#  23]+0.037*[#  16]+0.037*[#  24]+0.036*[#  19]
          +0.036*[#  20]+0.036*[#  27]+0.036*[#  28]+0.035*[#   7]+0.031*[#   1]
          +0.031*[#   9]+0.031*[#  29]+0.027*[#  17]+0.027*[#  25]+0.004*[#  18]
          +0.004*[#  26]+0.002*[#   2]+0.002*[#  10]+0.002*[#  30]
    |psi|^2 = 0.980
==== e(   5) =    -9.46690 eV ==== 
     psi = 0.085*[#   8]+0.077*[#   4]+0.070*[#  15]+0.070*[#  23]+0.067*[#  19]
          +0.067*[#  20]+0.067*[#  27]+0.067*[#  28]+0.063*[#  11]+0.063*[#  31]
          +0.039*[#  16]+0.039*[#  24]+0.036*[#  12]+0.036*[#  32]+0.024*[#   7]
          +0.022*[#   3]+0.014*[#  17]+0.014*[#  25]+0.008*[#   1]+0.008*[#   9]
          +0.008*[#  29]+0.006*[#   5]+0.006*[#  13]+0.006*[#  21]+0.005*[#  18]
          +0.005*[#  26]+0.002*[#   2]+0.002*[#  10]+0.002*[#  30]
    |psi|^2 = 0.986
==== e(   6) =    -9.07291 eV ==== 
     psi = 0.089*[#   8]+0.078*[#   4]+0.069*[#  15]+0.069*[#  23]+0.068*[#  19]
          +0.068*[#  20]+0.068*[#  27]+0.068*[#  28]+0.063*[#  11]+0.063*[#  31]
          +0.032*[#  12]+0.032*[#  32]+0.029*[#  16]+0.029*[#  24]+0.024*[#   5]
          +0.024*[#  13]+0.024*[#  21]+0.017*[#   3]+0.014*[#   1]+0.014*[#   9]
          +0.014*[#  29]+0.009*[#   7]+0.004*[#   2]+0.004*[#  10]+0.004*[#  30]
          +0.001*[#   6]+0.001*[#  14]+0.001*[#  22]
    |psi|^2 = 0.989
==== e(   7) =    -7.91188 eV ==== 
     psi = 0.078*[#   6]+0.078*[#  14]+0.078*[#  22]+0.077*[#  18]+0.077*[#  26]
          +0.058*[#   2]+0.058*[#  10]+0.058*[#  30]+0.031*[#   7]+0.026*[#  16]
          +0.026*[#  24]+0.024*[#   3]+0.023*[#  19]+0.023*[#  20]+0.023*[#  27]
          +0.023*[#  28]+0.023*[#  12]+0.023*[#  32]+0.021*[#  11]+0.021*[#  31]
          +0.020*[#   4]+0.016*[#  15]+0.016*[#  23]+0.011*[#   8]+0.009*[#   1]
          +0.009*[#   9]+0.009*[#  29]+0.007*[#  17]+0.007*[#  25]
    |psi|^2 = 0.953
==== e(   8) =    -7.13381 eV ==== 
     psi = 0.060*[#   3]+0.058*[#   7]+0.057*[#  18]+0.057*[#  26]+0.054*[#  16]
          +0.054*[#  24]+0.050*[#  12]+0.050*[#  32]+0.045*[#  15]+0.045*[#  23]
          +0.041*[#   8]+0.036*[#   6]+0.036*[#  14]+0.036*[#  22]+0.029*[#   2]
          +0.029*[#  10]+0.029*[#  30]+0.029*[#  11]+0.029*[#  31]+0.026*[#  19]
          +0.026*[#  20]+0.026*[#  27]+0.026*[#  28]+0.019*[#   4]+0.010*[#  17]
          +0.010*[#  25]+0.002*[#   5]+0.002*[#  13]+0.002*[#  21]
    |psi|^2 = 0.977
==== e(   9) =    -5.72721 eV ==== 
     psi = 0.070*[#   6]+0.070*[#  14]+0.070*[#  22]+0.066*[#  18]+0.066*[#  26]
          +0.051*[#   2]+0.051*[#  10]+0.051*[#  30]+0.050*[#   3]+0.041*[#  12]
          +0.041*[#  32]+0.033*[#   7]+0.032*[#  16]+0.032*[#  24]+0.030*[#  15]
          +0.030*[#  23]+0.028*[#   8]+0.022*[#  11]+0.022*[#  31]+0.013*[#   4]
          +0.013*[#  17]+0.013*[#  25]+0.010*[#   1]+0.010*[#   9]+0.010*[#  29]
          +0.009*[#  19]+0.009*[#  20]+0.009*[#  27]+0.009*[#  28]+0.008*[#   5]
          +0.008*[#  13]+0.008*[#  21]
    |psi|^2 = 0.983
==== e(  10) =    -5.15185 eV ==== 
     psi = 0.065*[#   7]+0.051*[#  16]+0.051*[#  24]+0.045*[#   6]+0.045*[#  14]
          +0.045*[#  22]+0.044*[#  18]+0.044*[#  26]+0.043*[#   3]+0.040*[#  12]
          +0.040*[#  32]+0.039*[#   1]+0.039*[#   9]+0.039*[#  29]+0.035*[#  11]
          +0.035*[#  31]+0.033*[#   4]+0.030*[#   2]+0.030*[#  10]+0.030*[#  30]
          +0.023*[#  15]+0.023*[#  23]+0.022*[#   5]+0.022*[#  13]+0.022*[#  21]
          +0.010*[#  17]+0.010*[#  25]+0.009*[#   8]+0.006*[#  19]+0.006*[#  20]
          +0.006*[#  27]+0.006*[#  28]
    |psi|^2 = 0.991
==== e(  11) =    -4.44873 eV ==== 
     psi = 0.102*[#   3]+0.096*[#   7]+0.084*[#  12]+0.084*[#  32]+0.078*[#  16]
          +0.078*[#  24]+0.048*[#  11]+0.048*[#  31]+0.041*[#  15]+0.041*[#  23]
          +0.030*[#   4]+0.023*[#   8]+0.023*[#   5]+0.023*[#  13]+0.023*[#  21]
          +0.019*[#  18]+0.019*[#  26]+0.018*[#   1]+0.018*[#   9]+0.018*[#  29]
          +0.009*[#  17]+0.009*[#  25]+0.007*[#   6]+0.007*[#  14]+0.007*[#  22]
          +0.006*[#   2]+0.006*[#  10]+0.006*[#  30]+0.006*[#  19]+0.006*[#  20]
          +0.006*[#  27]+0.006*[#  28]
    |psi|^2 = 0.992
==== e(  12) =    -3.02356 eV ==== 
     psi = 0.173*[#   6]+0.173*[#  14]+0.173*[#  22]+0.088*[#   2]+0.088*[#  10]
          +0.088*[#  30]+0.019*[#   1]+0.019*[#   9]+0.019*[#  29]+0.014*[#   3]
          +0.011*[#  12]+0.011*[#  32]+0.011*[#  19]+0.011*[#  20]+0.011*[#  27]
          +0.011*[#  28]+0.010*[#   7]+0.008*[#  18]+0.008*[#  26]+0.008*[#  16]
          +0.008*[#  24]+0.005*[#  11]+0.005*[#  31]+0.005*[#  17]+0.005*[#  25]
          +0.003*[#  15]+0.003*[#  23]+0.002*[#   4]+0.002*[#   5]+0.002*[#  13]
          +0.002*[#  21]
    |psi|^2 = 0.994
==== e(  13) =    -1.98937 eV ==== 
     psi = 0.162*[#  18]+0.162*[#  26]+0.135*[#   2]+0.135*[#  10]+0.135*[#  30]
          +0.043*[#   6]+0.043*[#  14]+0.043*[#  22]+0.021*[#  17]+0.021*[#  25]
          +0.012*[#   1]+0.012*[#   9]+0.012*[#  29]+0.005*[#   5]+0.005*[#  13]
          +0.005*[#  21]+0.005*[#   4]+0.004*[#   7]+0.004*[#  11]+0.004*[#  31]
          +0.004*[#  16]+0.004*[#  24]+0.002*[#  12]+0.002*[#  32]+0.002*[#  15]
          +0.002*[#  23]
    |psi|^2 = 0.990
==== e(  14) =     0.44600 eV ==== 
     psi = 0.160*[#  18]+0.160*[#  26]+0.134*[#   2]+0.134*[#  10]+0.134*[#  30]
          +0.008*[#   1]+0.008*[#   9]+0.008*[#  29]+0.006*[#   7]+0.006*[#  16]
          +0.006*[#  24]+0.006*[#   8]+0.006*[#  15]+0.006*[#  23]+0.006*[#  17]
          +0.006*[#  25]+0.005*[#  19]+0.005*[#  20]+0.005*[#  27]+0.005*[#  28]
          +0.005*[#   3]+0.004*[#  12]+0.004*[#  32]+0.003*[#  11]+0.003*[#  31]
          +0.003*[#   4]+0.002*[#   6]+0.002*[#  14]+0.002*[#  22]
    |psi|^2 = 0.844
==== e(  15) =     1.65636 eV ==== 
     psi = 0.143*[#   2]+0.143*[#  10]+0.143*[#  30]+0.069*[#   6]+0.069*[#  14]
          +0.069*[#  22]+0.031*[#  18]+0.031*[#  26]+0.014*[#   1]+0.014*[#   9]
          +0.014*[#  29]+0.014*[#   4]+0.013*[#  19]+0.013*[#  20]+0.013*[#  27]
          +0.013*[#  28]+0.011*[#  11]+0.011*[#  31]+0.004*[#  12]+0.004*[#  32]
          +0.003*[#   7]+0.002*[#  16]+0.002*[#  24]+0.002*[#  17]+0.002*[#  25]
          +0.001*[#  15]+0.001*[#  23]+0.001*[#   3]+0.001*[#   5]+0.001*[#   8]
          +0.001*[#  13]+0.001*[#  21]
    |psi|^2 = 0.853
==== e(  16) =     2.57072 eV ==== 
     psi = 0.102*[#   6]+0.102*[#  14]+0.102*[#  22]+0.099*[#  18]+0.099*[#  26]
          +0.041*[#   2]+0.041*[#  10]+0.041*[#  30]+0.027*[#  19]+0.027*[#  20]
          +0.027*[#  27]+0.027*[#  28]+0.020*[#   4]+0.018*[#  11]+0.018*[#  31]
          +0.017*[#   1]+0.017*[#   9]+0.017*[#  29]+0.015*[#  17]+0.015*[#  25]
          +0.014*[#  12]+0.014*[#  32]+0.012*[#   3]+0.006*[#   8]+0.005*[#  15]
          +0.005*[#  23]+0.004*[#  16]+0.004*[#  24]+0.003*[#   7]
    |psi|^2 = 0.936

 k =   0.0000000000  0.5051814855  0.0000000000
==== e(   1) =   -16.83929 eV ==== 
     psi = 0.096*[#  17]+0.096*[#  25]+0.058*[#   5]+0.058*[#  13]+0.058*[#  21]
          +0.056*[#   1]+0.056*[#   9]+0.056*[#  29]+0.038*[#   8]+0.034*[#  15]
          +0.034*[#  23]+0.032*[#   4]+0.029*[#  11]+0.029*[#  31]+0.028*[#  16]
          +0.028*[#  24]+0.024*[#   7]+0.021*[#  12]+0.021*[#  32]+0.018*[#   3]
          +0.014*[#  18]+0.014*[#  26]+0.013*[#  19]+0.013*[#  20]+0.013*[#  27]
          +0.013*[#  28]+0.009*[#   2]+0.009*[#  10]+0.009*[#  30]
    |psi|^2 = 0.980
==== e(   2) =   -15.77633 eV ==== 
     psi = 0.070*[#  17]+0.070*[#  25]+0.048*[#   5]+0.048*[#  13]+0.048*[#  21]
          +0.046*[#   1]+0.046*[#   9]+0.046*[#  29]+0.045*[#   8]+0.039*[#  15]
          +0.039*[#  23]+0.038*[#   4]+0.034*[#  19]+0.034*[#  20]+0.034*[#  27]
          +0.034*[#  28]+0.033*[#  11]+0.033*[#  31]+0.029*[#  16]+0.029*[#  24]
          +0.025*[#  12]+0.025*[#  32]+0.023*[#   7]+0.020*[#   3]+0.010*[#  18]
          +0.010*[#  26]+0.007*[#   2]+0.007*[#  10]+0.007*[#  30]
    |psi|^2 = 0.977
==== e(   3) =   -13.23635 eV ==== 
     psi = 0.098*[#  19]+0.098*[#  20]+0.098*[#  27]+0.098*[#  28]+0.053*[#   1]
          +0.053*[#   9]+0.053*[#  29]+0.045*[#   5]+0.045*[#  13]+0.045*[#  21]
          +0.032*[#   7]+0.030*[#  16]+0.030*[#  24]+0.027*[#  15]+0.027*[#  23]
          +0.026*[#   8]+0.020*[#   3]+0.018*[#  12]+0.018*[#  32]+0.015*[#  11]
          +0.015*[#  31]+0.014*[#   4]+0.006*[#   2]+0.006*[#  10]+0.006*[#  30]
          
    |psi|^2 = 0.979
==== e(   4) =   -12.17308 eV ==== 
     psi = 0.052*[#   3]+0.051*[#  12]+0.051*[#  32]+0.050*[#  11]+0.050*[#  31]
          +0.049*[#   4]+0.044*[#   5]+0.044*[#  13]+0.044*[#  21]+0.044*[#   8]
          +0.042*[#  15]+0.042*[#  23]+0.038*[#  16]+0.038*[#  24]+0.036*[#   7]
          +0.035*[#  19]+0.035*[#  20]+0.035*[#  27]+0.035*[#  28]+0.031*[#   1]
          +0.031*[#   9]+0.031*[#  29]+0.027*[#  17]+0.027*[#  25]+0.004*[#  18]
          +0.004*[#  26]+0.002*[#   2]+0.002*[#  10]+0.002*[#  30]
    |psi|^2 = 0.979
==== e(   5) =    -9.05730 eV ==== 
     psi = 0.095*[#   8]+0.088*[#   4]+0.074*[#  15]+0.074*[#  19]+0.074*[#  20]
          +0.074*[#  23]+0.074*[#  27]+0.074*[#  28]+0.068*[#  11]+0.068*[#  31]
          +0.033*[#  16]+0.033*[#  24]+0.029*[#  12]+0.029*[#  32]+0.012*[#   7]
          +0.010*[#   3]+0.009*[#  17]+0.009*[#  25]+0.008*[#  18]+0.008*[#  26]
          +0.006*[#   1]+0.006*[#   9]+0.006*[#  29]+0.004*[#   2]+0.004*[#  10]
          +0.004*[#  30]+0.002*[#   5]+0.002*[#  13]+0.002*[#  21]+0.002*[#   6]
          +0.002*[#  14]+0.002*[#  22]
    |psi|^2 = 0.985
==== e(   6) =    -8.79476 eV ==== 
     psi = 0.100*[#   8]+0.086*[#   4]+0.076*[#  15]+0.076*[#  23]+0.073*[#  19]
          +0.073*[#  20]+0.073*[#  27]+0.073*[#  28]+0.067*[#  11]+0.067*[#  31]
          +0.029*[#  12]+0.029*[#  32]+0.028*[#  16]+0.028*[#  24]+0.018*[#   5]
          +0.018*[#  13]+0.018*[#  21]+0.010*[#   3]+0.008*[#   1]+0.008*[#   9]
          +0.008*[#  29]+0.004*[#   2]+0.004*[#  10]+0.004*[#  30]+0.004*[#   7]
          +0.002*[#   6]+0.002*[#  14]+0.002*[#  22]+0.001*[#  18]+0.001*[#  26]
          
    |psi|^2 = 0.989
==== e(   7) =    -7.80204 eV ==== 
     psi = 0.063*[#   7]+0.054*[#   3]+0.052*[#  16]+0.052*[#  24]+0.048*[#  12]
          +0.048*[#  32]+0.040*[#   6]+0.040*[#  14]+0.040*[#  22]+0.040*[#  19]
          +0.040*[#  20]+0.040*[#  27]+0.040*[#  28]+0.037*[#  18]+0.037*[#  26]
          +0.035*[#  11]+0.035*[#  31]+0.031*[#  15]+0.031*[#  23]+0.030*[#   2]
          +0.030*[#  10]+0.030*[#  30]+0.029*[#   4]+0.021*[#   8]+0.006*[#   1]
          +0.006*[#   9]+0.006*[#  29]+0.002*[#  17]+0.002*[#  25]+0.002*[#   5]
          +0.002*[#  13]+0.002*[#  21]
    |psi|^2 = 0.971
==== e(   8) =    -7.10933 eV ==== 
     psi = 0.103*[#  18]+0.103*[#  26]+0.078*[#   6]+0.078*[#  14]+0.078*[#  22]
          +0.057*[#   2]+0.057*[#  10]+0.057*[#  30]+0.026*[#   3]+0.024*[#   7]
          +0.024*[#  16]+0.024*[#  24]+0.023*[#  15]+0.023*[#  23]+0.023*[#   8]
          +0.021*[#  12]+0.021*[#  32]+0.020*[#  17]+0.020*[#  25]+0.012*[#  11]
          +0.012*[#  31]+0.011*[#  19]+0.011*[#  20]+0.011*[#  27]+0.011*[#  28]
          +0.008*[#   1]+0.008*[#   9]+0.008*[#  29]+0.007*[#   4]+0.002*[#   5]
          +0.002*[#  13]+0.002*[#  21]
    |psi|^2 = 0.968
==== e(   9) =    -6.18800 eV ==== 
     psi = 0.064*[#   3]+0.061*[#   6]+0.061*[#  14]+0.061*[#  22]+0.053*[#  18]
          +0.053*[#  26]+0.050*[#  12]+0.050*[#  32]+0.050*[#   2]+0.050*[#  10]
          +0.050*[#  30]+0.044*[#   7]+0.040*[#  16]+0.040*[#  24]+0.032*[#  15]
          +0.032*[#  23]+0.028*[#   8]+0.023*[#  11]+0.023*[#  31]+0.013*[#   5]
          +0.013*[#  13]+0.013*[#  21]+0.011*[#  17]+0.011*[#  25]+0.009*[#   4]
          +0.007*[#   1]+0.007*[#   9]+0.007*[#  29]+0.005*[#  19]+0.005*[#  20]
          +0.005*[#  27]+0.005*[#  28]
    |psi|^2 = 0.979
==== e(  10) =    -5.44285 eV ==== 
     psi = 0.063*[#   7]+0.054*[#   6]+0.054*[#  14]+0.054*[#  22]+0.052*[#  18]
          +0.052*[#  26]+0.048*[#  16]+0.048*[#  24]+0.045*[#   1]+0.045*[#   9]
          +0.045*[#  29]+0.041*[#   3]+0.036*[#  12]+0.036*[#  32]+0.035*[#   2]
          +0.035*[#  10]+0.035*[#  30]+0.026*[#  11]+0.026*[#  31]+0.021*[#   4]
          +0.020*[#   5]+0.020*[#  13]+0.020*[#  21]+0.018*[#  15]+0.018*[#  23]
          +0.013*[#  17]+0.013*[#  25]+0.003*[#   8]+0.003*[#  19]+0.003*[#  20]
          +0.003*[#  27]+0.003*[#  28]
    |psi|^2 = 0.990
==== e(  11) =    -4.54576 eV ==== 
     psi = 0.112*[#   3]+0.109*[#   7]+0.092*[#  12]+0.092*[#  32]+0.087*[#  16]
          +0.087*[#  24]+0.052*[#  11]+0.052*[#  31]+0.042*[#  15]+0.042*[#  23]
          +0.031*[#   4]+0.024*[#   5]+0.024*[#  13]+0.024*[#  21]+0.020*[#   8]
          +0.017*[#   1]+0.017*[#   9]+0.017*[#  29]+0.012*[#  18]+0.012*[#  26]
          +0.004*[#  17]+0.004*[#  25]+0.002*[#  19]+0.002*[#  20]+0.002*[#  27]
          +0.002*[#  28]+0.002*[#   2]+0.002*[#   6]+0.002*[#  10]+0.002*[#  14]
          +0.002*[#  22]+0.002*[#  30]
    |psi|^2 = 0.991
==== e(  12) =    -3.12332 eV ==== 
     psi = 0.174*[#   6]+0.174*[#  14]+0.174*[#  22]+0.090*[#   2]+0.090*[#  10]
          +0.090*[#  30]+0.018*[#   1]+0.018*[#   9]+0.018*[#  29]+0.013*[#   3]
          +0.011*[#  19]+0.011*[#  20]+0.011*[#  27]+0.011*[#  28]+0.010*[#  12]
          +0.010*[#  32]+0.009*[#   7]+0.008*[#  18]+0.008*[#  26]+0.007*[#  16]
          +0.007*[#  24]+0.005*[#  17]+0.005*[#  25]+0.005*[#  11]+0.005*[#  31]
          +0.002*[#  15]+0.002*[#  23]+0.002*[#   4]+0.001*[#   5]+0.001*[#  13]
          +0.001*[#  21]
    |psi|^2 = 0.994
==== e(  13) =    -2.06246 eV ==== 
     psi = 0.164*[#  18]+0.164*[#  26]+0.135*[#   2]+0.135*[#  10]+0.135*[#  30]
          +0.043*[#   6]+0.043*[#  14]+0.043*[#  22]+0.020*[#  17]+0.020*[#  25]
          +0.011*[#   1]+0.011*[#   9]+0.011*[#  29]+0.006*[#   5]+0.006*[#  13]
          +0.006*[#  21]+0.005*[#   4]+0.004*[#   7]+0.004*[#  11]+0.004*[#  31]
          +0.003*[#  16]+0.003*[#  24]+0.002*[#  12]+0.002*[#  32]+0.001*[#  15]
          +0.001*[#  23]
    |psi|^2 = 0.991
==== e(  14) =     0.61592 eV ==== 
     psi = 0.164*[#  18]+0.164*[#  26]+0.141*[#   2]+0.141*[#  10]+0.141*[#  30]
          +0.009*[#   1]+0.009*[#   9]+0.009*[#  29]+0.007*[#   7]+0.006*[#  16]
          +0.006*[#  24]+0.006*[#  15]+0.006*[#  23]+0.006*[#   8]+0.005*[#  17]
          +0.005*[#  25]+0.005*[#   3]+0.004*[#  12]+0.004*[#  32]+0.002*[#  19]
          +0.002*[#  20]+0.002*[#  27]+0.002*[#  28]+0.002*[#  11]+0.002*[#  31]
          +0.001*[#   4]
    |psi|^2 = 0.855
==== e(  15) =     1.85100 eV ==== 
     psi = 0.131*[#   2]+0.131*[#  10]+0.131*[#  30]+0.061*[#   6]+0.061*[#  14]
          +0.061*[#  22]+0.042*[#  18]+0.042*[#  26]+0.011*[#  19]+0.011*[#  20]
          +0.011*[#  27]+0.011*[#  28]+0.009*[#   4]+0.007*[#  11]+0.007*[#  31]
          +0.007*[#   1]+0.007*[#   9]+0.007*[#  29]+0.004*[#   7]+0.004*[#  16]
          +0.004*[#  24]+0.003*[#  12]+0.003*[#  32]+0.002*[#  15]+0.002*[#  23]
          +0.002*[#   8]
    |psi|^2 = 0.775
==== e(  16) =     3.15508 eV ==== 
     psi = 0.087*[#   6]+0.087*[#  14]+0.087*[#  22]+0.073*[#  18]+0.073*[#  26]
          +0.034*[#  19]+0.034*[#  20]+0.034*[#  27]+0.034*[#  28]+0.030*[#   2]
          +0.030*[#  10]+0.030*[#  30]+0.030*[#   4]+0.030*[#   1]+0.030*[#   9]
          +0.030*[#  29]+0.025*[#  11]+0.025*[#  31]+0.016*[#  17]+0.016*[#  25]
          +0.015*[#  12]+0.015*[#  32]+0.010*[#   3]+0.008*[#   8]+0.007*[#  15]
          +0.007*[#  23]+0.004*[#  16]+0.004*[#  24]+0.002*[#   7]+0.002*[#   5]
          +0.002*[#  13]+0.002*[#  21]
    |psi|^2 = 0.912

 k =   0.0000000000 -0.5773502692  0.0000000000
==== e(   1) =   -16.74474 eV ==== 
     psi = 0.096*[#  17]+0.096*[#  25]+0.055*[#   5]+0.055*[#  13]+0.055*[#  21]
          +0.052*[#   1]+0.052*[#   9]+0.052*[#  29]+0.042*[#   8]+0.038*[#  15]
          +0.038*[#  23]+0.035*[#   4]+0.031*[#  11]+0.031*[#  31]+0.029*[#  16]
          +0.029*[#  24]+0.025*[#   7]+0.022*[#  12]+0.022*[#  32]+0.018*[#   3]
          +0.014*[#  18]+0.014*[#  26]+0.013*[#  19]+0.013*[#  20]+0.013*[#  27]
          +0.013*[#  28]+0.009*[#   2]+0.009*[#  10]+0.009*[#  30]
    |psi|^2 = 0.979
==== e(   2) =   -15.90598 eV ==== 
     psi = 0.070*[#  17]+0.070*[#  25]+0.051*[#   5]+0.051*[#  13]+0.051*[#  21]
          +0.049*[#   1]+0.049*[#   9]+0.049*[#  29]+0.041*[#   8]+0.036*[#  15]
          +0.036*[#  23]+0.035*[#  19]+0.035*[#  20]+0.035*[#  27]+0.035*[#  28]
          +0.035*[#   4]+0.031*[#  11]+0.031*[#  31]+0.027*[#  16]+0.027*[#  24]
          +0.024*[#  12]+0.024*[#  32]+0.023*[#   7]+0.020*[#   3]+0.010*[#  18]
          +0.010*[#  26]+0.007*[#   2]+0.007*[#  10]+0.007*[#  30]
    |psi|^2 = 0.977
==== e(   3) =   -13.25021 eV ==== 
     psi = 0.098*[#  19]+0.098*[#  20]+0.098*[#  27]+0.098*[#  28]+0.053*[#   1]
          +0.053*[#   9]+0.053*[#  29]+0.046*[#   5]+0.046*[#  13]+0.046*[#  21]
          +0.031*[#   7]+0.030*[#  16]+0.030*[#  24]+0.027*[#  15]+0.027*[#  23]
          +0.026*[#   8]+0.020*[#   3]+0.018*[#  12]+0.018*[#  32]+0.015*[#  11]
          +0.015*[#  31]+0.013*[#   4]+0.006*[#   2]+0.006*[#  10]+0.006*[#  30]
          
    |psi|^2 = 0.979
==== e(   4) =   -12.19599 eV ==== 
     psi = 0.053*[#   3]+0.052*[#  12]+0.052*[#  32]+0.050*[#  11]+0.050*[#  31]
          +0.049*[#   4]+0.044*[#   5]+0.044*[#  13]+0.044*[#  21]+0.043*[#   8]
          +0.042*[#  15]+0.042*[#  23]+0.038*[#  16]+0.038*[#  24]+0.037*[#   7]
          +0.034*[#  19]+0.034*[#  20]+0.034*[#  27]+0.034*[#  28]+0.031*[#   1]
          +0.031*[#   9]+0.031*[#  29]+0.027*[#  17]+0.027*[#  25]+0.004*[#  18]
          +0.004*[#  26]+0.002*[#   2]+0.002*[#  10]+0.002*[#  30]
    |psi|^2 = 0.979
==== e(   5) =    -8.87312 eV ==== 
     psi = 0.102*[#   8]+0.096*[#   4]+0.078*[#  19]+0.078*[#  20]+0.078*[#  27]
          +0.078*[#  28]+0.077*[#  15]+0.077*[#  23]+0.072*[#  11]+0.072*[#  31]
          +0.027*[#  16]+0.027*[#  24]+0.024*[#  12]+0.024*[#  32]+0.010*[#  18]
          +0.010*[#  26]+0.006*[#  17]+0.006*[#  25]+0.006*[#   2]+0.006*[#  10]
          +0.006*[#  30]+0.004*[#   1]+0.004*[#   9]+0.004*[#  29]+0.003*[#   6]
          +0.003*[#  14]+0.003*[#  22]+0.002*[#   7]
    |psi|^2 = 0.984
==== e(   6) =    -8.67456 eV ==== 
     psi = 0.107*[#   8]+0.090*[#   4]+0.080*[#  15]+0.080*[#  23]+0.076*[#  19]
          +0.076*[#  20]+0.076*[#  27]+0.076*[#  28]+0.069*[#  11]+0.069*[#  31]
          +0.027*[#  12]+0.027*[#  32]+0.027*[#  16]+0.027*[#  24]+0.015*[#   5]
          +0.015*[#  13]+0.015*[#  21]+0.006*[#   3]+0.005*[#   1]+0.005*[#   9]
          +0.005*[#  29]+0.003*[#   2]+0.003*[#  10]+0.003*[#  30]+0.001*[#  17]
          +0.001*[#  25]+0.001*[#   6]+0.001*[#  14]+0.001*[#  22]
    |psi|^2 = 0.989
==== e(   7) =    -7.82195 eV ==== 
     psi = 0.087*[#   7]+0.077*[#   3]+0.071*[#  16]+0.071*[#  24]+0.065*[#  12]
          +0.065*[#  32]+0.045*[#  19]+0.045*[#  20]+0.045*[#  27]+0.045*[#  28]
          +0.040*[#  11]+0.040*[#  31]+0.039*[#  15]+0.039*[#  23]+0.028*[#   4]
          +0.023*[#   8]+0.019*[#   6]+0.019*[#  14]+0.019*[#  22]+0.015*[#   2]
          +0.015*[#  10]+0.015*[#  30]+0.014*[#  18]+0.014*[#  26]+0.005*[#   1]
          +0.005*[#   9]+0.005*[#  29]+0.003*[#   5]+0.003*[#  13]+0.003*[#  21]
          +0.002*[#  17]+0.002*[#  25]
    |psi|^2 = 0.979
==== e(   8) =    -7.05526 eV ==== 
     psi = 0.138*[#  18]+0.138*[#  26]+0.106*[#   6]+0.106*[#  14]+0.106*[#  22]
          +0.074*[#   2]+0.074*[#  10]+0.074*[#  30]+0.024*[#  17]+0.024*[#  25]
          +0.015*[#   1]+0.015*[#   9]+0.015*[#  29]+0.011*[#   8]+0.008*[#  15]
          +0.008*[#  23]+0.004*[#  19]+0.004*[#  20]+0.004*[#  27]+0.004*[#  28]
          +0.003*[#  16]+0.003*[#  24]+0.002*[#   4]+0.001*[#  11]+0.001*[#  31]
          
    |psi|^2 = 0.963
==== e(   9) =    -6.40856 eV ==== 
     psi = 0.078*[#   3]+0.060*[#  12]+0.060*[#  32]+0.054*[#   7]+0.053*[#   6]
          +0.053*[#  14]+0.053*[#  22]+0.048*[#   2]+0.048*[#  10]+0.048*[#  30]
          +0.048*[#  16]+0.048*[#  24]+0.040*[#  18]+0.040*[#  26]+0.035*[#  15]
          +0.035*[#  23]+0.028*[#   8]+0.024*[#  11]+0.024*[#  31]+0.017*[#   5]
          +0.017*[#  13]+0.017*[#  21]+0.009*[#  17]+0.009*[#  25]+0.007*[#   4]
          +0.004*[#   1]+0.004*[#   9]+0.004*[#  29]+0.002*[#  19]+0.002*[#  20]
          +0.002*[#  27]+0.002*[#  28]
    |psi|^2 = 0.976
==== e(  10) =    -5.55287 eV ==== 
     psi = 0.063*[#   7]+0.056*[#   6]+0.056*[#  14]+0.056*[#  22]+0.052*[#  18]
          +0.052*[#  26]+0.048*[#  16]+0.048*[#  24]+0.047*[#   1]+0.047*[#   9]
          +0.047*[#  29]+0.042*[#   3]+0.036*[#  12]+0.036*[#  32]+0.035*[#   2]
          +0.035*[#  10]+0.035*[#  30]+0.023*[#  11]+0.023*[#  31]+0.020*[#   5]
          +0.020*[#  13]+0.020*[#  21]+0.017*[#  15]+0.017*[#  23]+0.017*[#   4]
          +0.014*[#  17]+0.014*[#  25]+0.002*[#  19]+0.002*[#  20]+0.002*[#  27]
          +0.002*[#  28]+0.002*[#   8]
    |psi|^2 = 0.989
==== e(  11) =    -4.55353 eV ==== 
     psi = 0.115*[#   3]+0.113*[#   7]+0.095*[#  12]+0.095*[#  32]+0.090*[#  16]
          +0.090*[#  24]+0.053*[#  11]+0.053*[#  31]+0.043*[#  15]+0.043*[#  23]
          +0.032*[#   4]+0.024*[#   5]+0.024*[#  13]+0.024*[#  21]+0.019*[#   8]
          +0.016*[#   1]+0.016*[#   9]+0.016*[#  29]+0.011*[#  18]+0.011*[#  26]
          +0.002*[#  17]+0.002*[#  25]
    |psi|^2 = 0.991
==== e(  12) =    -3.15728 eV ==== 
     psi = 0.175*[#   6]+0.175*[#  14]+0.175*[#  22]+0.091*[#   2]+0.091*[#  10]
          +0.091*[#  30]+0.018*[#   1]+0.018*[#   9]+0.018*[#  29]+0.013*[#   3]
          +0.011*[#  19]+0.011*[#  20]+0.011*[#  27]+0.011*[#  28]+0.010*[#  12]
          +0.010*[#  32]+0.009*[#   7]+0.007*[#  18]+0.007*[#  26]+0.006*[#  16]
          +0.006*[#  24]+0.005*[#  17]+0.005*[#  25]+0.004*[#  11]+0.004*[#  31]
          +0.002*[#  15]+0.002*[#  23]+0.002*[#   4]+0.001*[#   5]+0.001*[#  13]
          +0.001*[#  21]
    |psi|^2 = 0.994
==== e(  13) =    -2.08802 eV ==== 
     psi = 0.165*[#  18]+0.165*[#  26]+0.135*[#   2]+0.135*[#  10]+0.135*[#  30]
          +0.043*[#   6]+0.043*[#  14]+0.043*[#  22]+0.020*[#  17]+0.020*[#  25]
          +0.011*[#   1]+0.011*[#   9]+0.011*[#  29]+0.007*[#   5]+0.007*[#  13]
          +0.007*[#  21]+0.005*[#   4]+0.004*[#   7]+0.004*[#  11]+0.004*[#  31]
          +0.003*[#  16]+0.003*[#  24]+0.002*[#  12]+0.002*[#  32]+0.001*[#  15]
          +0.001*[#  23]
    |psi|^2 = 0.991
==== e(  14) =     0.68276 eV ==== 
     psi = 0.167*[#  18]+0.167*[#  26]+0.144*[#   2]+0.144*[#  10]+0.144*[#  30]
          +0.009*[#   1]+0.009*[#   9]+0.009*[#  29]+0.007*[#   7]+0.007*[#  16]
          +0.007*[#  24]+0.006*[#  15]+0.006*[#  23]+0.005*[#   8]+0.005*[#  17]
          +0.005*[#  25]+0.005*[#   3]+0.004*[#  12]+0.004*[#  32]+0.002*[#  11]
          +0.002*[#  31]
    |psi|^2 = 0.861
==== e(  15) =     1.90157 eV ==== 
     psi = 0.125*[#   2]+0.125*[#  10]+0.125*[#  30]+0.059*[#   6]+0.059*[#  14]
          +0.059*[#  22]+0.044*[#  18]+0.044*[#  26]+0.011*[#  19]+0.011*[#  20]
          +0.011*[#  27]+0.011*[#  28]+0.008*[#   4]+0.006*[#  11]+0.006*[#  31]
          +0.005*[#   7]+0.004*[#  16]+0.004*[#  24]+0.004*[#   1]+0.004*[#   9]
          +0.004*[#  29]+0.003*[#  15]+0.003*[#  23]+0.002*[#  12]+0.002*[#  32]
          +0.002*[#   8]
    |psi|^2 = 0.742
==== e(  16) =     3.46836 eV ==== 
     psi = 0.057*[#   6]+0.057*[#  14]+0.057*[#  22]+0.044*[#  18]+0.044*[#  26]
          +0.043*[#   4]+0.042*[#  19]+0.042*[#  20]+0.042*[#  27]+0.042*[#  28]
          +0.040*[#   1]+0.040*[#   9]+0.040*[#  29]+0.034*[#  11]+0.034*[#  31]
          +0.020*[#  17]+0.020*[#  25]+0.017*[#   2]+0.017*[#  10]+0.017*[#  30]
          +0.016*[#  12]+0.016*[#  32]+0.013*[#   8]+0.010*[#  15]+0.010*[#  23]
          +0.007*[#   3]+0.004*[#  16]+0.004*[#  24]
    |psi|^2 = 0.830

 k =   0.0625000000  0.1082531755  0.0000000000
==== e(   1) =   -17.65774 eV ==== 
     psi = 0.128*[#  17]+0.128*[#  25]+0.098*[#   5]+0.098*[#  13]+0.098*[#  21]
          +0.094*[#   1]+0.094*[#   9]+0.094*[#  29]+0.017*[#  18]+0.017*[#  26]
          +0.012*[#   2]+0.012*[#  10]+0.012*[#  30]+0.011*[#   7]+0.009*[#  16]
          +0.009*[#  24]+0.007*[#   3]+0.006*[#  12]+0.006*[#  32]+0.006*[#  15]
          +0.006*[#  23]+0.004*[#  11]+0.004*[#  31]+0.004*[#   8]+0.003*[#   4]
          +0.002*[#  19]+0.002*[#  20]+0.002*[#  27]+0.002*[#  28]
    |psi|^2 = 0.987
==== e(   2) =   -13.69133 eV ==== 
     psi = 0.084*[#   8]+0.070*[#   4]+0.068*[#  15]+0.068*[#  23]+0.068*[#  17]
[...]
          +0.003*[#  23]+0.002*[#   8]+0.002*[#   5]+0.002*[#  13]+0.002*[#  21]
          +0.002*[#  19]+0.002*[#  20]+0.002*[#  27]+0.002*[#  28]+0.001*[#  11]
          +0.001*[#  31]
    |psi|^2 = 0.921
==== e(  15) =     1.83569 eV ==== 
     psi = 0.128*[#   2]+0.128*[#  10]+0.128*[#  30]+0.085*[#   6]+0.085*[#  14]
          +0.085*[#  22]+0.016*[#  18]+0.016*[#  26]+0.015*[#  19]+0.015*[#  20]
          +0.015*[#  27]+0.015*[#  28]+0.012*[#   1]+0.012*[#   9]+0.012*[#  29]
          +0.010*[#   4]+0.009*[#  11]+0.009*[#  31]+0.007*[#  12]+0.007*[#  32]
          +0.006*[#   3]+0.004*[#  17]+0.004*[#  25]+0.003*[#   7]+0.002*[#  16]
          +0.002*[#  24]+0.002*[#   5]+0.002*[#  13]+0.002*[#  21]+0.002*[#  15]
          +0.002*[#  23]+0.001*[#   8]
    |psi|^2 = 0.840
==== e(  16) =     2.94397 eV ==== 
     psi = 0.072*[#  17]+0.072*[#  25]+0.039*[#   1]+0.039*[#   6]+0.039*[#   9]
          +0.039*[#  14]+0.039*[#  22]+0.039*[#  29]+0.039*[#  18]+0.039*[#  26]
          +0.031*[#   4]+0.027*[#  19]+0.027*[#  20]+0.027*[#  27]+0.027*[#  28]
          +0.025*[#   5]+0.025*[#  13]+0.025*[#  21]+0.025*[#  11]+0.025*[#  31]
          +0.021*[#   2]+0.021*[#  10]+0.021*[#  30]+0.012*[#  12]+0.012*[#  32]
          +0.008*[#   8]+0.007*[#  15]+0.007*[#  23]+0.006*[#   3]+0.006*[#  16]
          +0.006*[#  24]+0.005*[#   7]
    |psi|^2 = 0.851

 k =   0.2500000000  0.5773502692  0.0000000000
==== e(   1) =   -16.48054 eV ==== 
     psi = 0.090*[#  17]+0.090*[#  25]+0.050*[#   5]+0.050*[#  13]+0.050*[#  21]
          +0.048*[#   1]+0.048*[#   9]+0.048*[#  29]+0.046*[#   8]+0.041*[#  15]
          +0.041*[#  23]+0.039*[#   4]+0.034*[#  11]+0.034*[#  31]+0.030*[#  16]
          +0.030*[#  24]+0.025*[#   7]+0.024*[#  12]+0.024*[#  32]+0.019*[#   3]
          +0.017*[#  19]+0.017*[#  20]+0.017*[#  27]+0.017*[#  28]+0.014*[#  18]
          +0.014*[#  26]+0.008*[#   2]+0.008*[#  10]+0.008*[#  30]
    |psi|^2 = 0.978
==== e(   2) =   -16.08010 eV ==== 
     psi = 0.082*[#  17]+0.082*[#  25]+0.050*[#   8]+0.046*[#   5]+0.046*[#  13]
          +0.046*[#  21]+0.044*[#   1]+0.044*[#   9]+0.044*[#  29]+0.043*[#  15]
          +0.043*[#  23]+0.042*[#   4]+0.036*[#  11]+0.036*[#  31]+0.031*[#  16]
          +0.031*[#  24]+0.025*[#  12]+0.025*[#  32]+0.024*[#   7]+0.024*[#  19]
          +0.024*[#  20]+0.024*[#  27]+0.024*[#  28]+0.019*[#   3]+0.012*[#  18]
          +0.012*[#  26]+0.007*[#   2]+0.007*[#  10]+0.007*[#  30]
    |psi|^2 = 0.977
==== e(   3) =   -14.08572 eV ==== 
     psi = 0.086*[#  19]+0.086*[#  20]+0.086*[#  27]+0.086*[#  28]+0.065*[#   5]
          +0.065*[#  13]+0.065*[#  21]+0.064*[#   1]+0.064*[#   9]+0.064*[#  29]
          +0.035*[#   3]+0.033*[#   7]+0.027*[#  12]+0.027*[#  32]+0.026*[#  16]
          +0.026*[#  24]+0.011*[#  15]+0.011*[#  23]+0.010*[#  11]+0.010*[#  31]
          +0.006*[#   2]+0.006*[#  10]+0.006*[#  30]+0.003*[#   8]+0.002*[#   4]
          
    |psi|^2 = 0.975
==== e(   4) =   -10.57453 eV ==== 
     psi = 0.070*[#   8]+0.065*[#   4]+0.063*[#  19]+0.063*[#  20]+0.063*[#  27]
          +0.063*[#  28]+0.057*[#  15]+0.057*[#  23]+0.055*[#  11]+0.055*[#  31]
          +0.034*[#  12]+0.034*[#  32]+0.032*[#  16]+0.032*[#  24]+0.028*[#   5]
          +0.028*[#  13]+0.028*[#  21]+0.024*[#   3]+0.022*[#   1]+0.022*[#   9]
          +0.022*[#  29]+0.019*[#   7]+0.017*[#  17]+0.017*[#  25]+0.004*[#  18]
          +0.004*[#  26]+0.003*[#   2]+0.003*[#  10]+0.003*[#  30]
    |psi|^2 = 0.985
==== e(   5) =    -9.69123 eV ==== 
     psi = 0.092*[#   8]+0.084*[#   4]+0.075*[#  19]+0.075*[#  20]+0.075*[#  27]
          +0.075*[#  28]+0.069*[#  15]+0.069*[#  23]+0.064*[#  11]+0.064*[#  31]
          +0.025*[#  12]+0.025*[#  32]+0.024*[#  16]+0.024*[#  24]+0.018*[#   5]
          +0.018*[#  13]+0.018*[#  21]+0.013*[#   1]+0.013*[#   9]+0.013*[#  29]
          +0.012*[#  17]+0.012*[#  25]+0.005*[#  18]+0.005*[#  26]+0.005*[#   3]
          +0.004*[#   2]+0.004*[#  10]+0.004*[#  30]
    |psi|^2 = 0.986
==== e(   6) =    -8.81280 eV ==== 
     psi = 0.108*[#   7]+0.106*[#   3]+0.084*[#  16]+0.084*[#  24]+0.083*[#  12]
          +0.083*[#  32]+0.037*[#  15]+0.037*[#  23]+0.036*[#  11]+0.036*[#  31]
          +0.031*[#  19]+0.031*[#  20]+0.031*[#  27]+0.031*[#  28]+0.019*[#   5]
          +0.019*[#  13]+0.019*[#  21]+0.015*[#   1]+0.015*[#   9]+0.015*[#  29]
          +0.013*[#   8]+0.012*[#   4]+0.005*[#   2]+0.005*[#  10]+0.005*[#  30]
          +0.005*[#   6]+0.005*[#  14]+0.005*[#  22]+0.002*[#  18]+0.002*[#  26]
          +0.001*[#  17]+0.001*[#  25]
    |psi|^2 = 0.982
==== e(   7) =    -8.11419 eV ==== 
     psi = 0.116*[#   8]+0.101*[#   4]+0.087*[#  15]+0.087*[#  23]+0.081*[#  19]
          +0.081*[#  20]+0.081*[#  27]+0.081*[#  28]+0.076*[#  11]+0.076*[#  31]
          +0.030*[#  16]+0.030*[#  24]+0.026*[#  12]+0.026*[#  32]+0.001*[#   3]
          +0.001*[#   5]+0.001*[#  13]+0.001*[#  21]
    |psi|^2 = 0.991
==== e(   8) =    -6.77379 eV ==== 
     psi = 0.139*[#  18]+0.139*[#  26]+0.107*[#   6]+0.107*[#  14]+0.107*[#  22]
          +0.077*[#   2]+0.077*[#  10]+0.077*[#  30]+0.022*[#  17]+0.022*[#  25]
          +0.013*[#   1]+0.013*[#   9]+0.013*[#  29]+0.007*[#   8]+0.006*[#  15]
          +0.006*[#  23]+0.004*[#  16]+0.004*[#  24]+0.003*[#  19]+0.003*[#  20]
          +0.003*[#  27]+0.003*[#  28]+0.002*[#   7]+0.002*[#   3]+0.002*[#  32]
          +0.002*[#   4]+0.002*[#  11]+0.002*[#  12]+0.002*[#  31]
    |psi|^2 = 0.967
==== e(   9) =    -6.34426 eV ==== 
     psi = 0.121*[#  18]+0.121*[#  26]+0.102*[#   6]+0.102*[#  14]+0.102*[#  22]
          +0.074*[#   2]+0.074*[#  10]+0.074*[#  30]+0.018*[#  17]+0.018*[#  25]
          +0.012*[#   1]+0.012*[#   9]+0.012*[#  29]+0.011*[#   3]+0.010*[#   7]
          +0.010*[#  12]+0.010*[#  16]+0.010*[#  24]+0.010*[#  32]+0.009*[#  15]
          +0.009*[#  23]+0.008*[#   8]+0.007*[#  11]+0.007*[#  31]+0.005*[#   4]
          +0.004*[#  19]+0.004*[#  20]+0.004*[#  27]+0.004*[#  28]+0.003*[#   5]
          +0.003*[#  13]+0.003*[#  21]
    |psi|^2 = 0.973
==== e(  10) =    -4.86342 eV ==== 
     psi = 0.096*[#   7]+0.092*[#   3]+0.077*[#  16]+0.077*[#  24]+0.075*[#  12]
          +0.075*[#  32]+0.042*[#  11]+0.042*[#  31]+0.039*[#  15]+0.039*[#  23]
          +0.025*[#   4]+0.023*[#   1]+0.023*[#   9]+0.023*[#  29]+0.020*[#   8]
          +0.019*[#   6]+0.019*[#  14]+0.019*[#  22]+0.017*[#  18]+0.017*[#  26]
          +0.016*[#   5]+0.016*[#  13]+0.016*[#  21]+0.016*[#   2]+0.016*[#  10]
          +0.016*[#  30]+0.006*[#  19]+0.006*[#  20]+0.006*[#  27]+0.006*[#  28]
          +0.005*[#  17]+0.005*[#  25]
    |psi|^2 = 0.991
==== e(  11) =    -4.65441 eV ==== 
     psi = 0.114*[#   3]+0.112*[#   7]+0.093*[#  12]+0.093*[#  32]+0.090*[#  16]
          +0.090*[#  24]+0.051*[#  11]+0.051*[#  31]+0.046*[#  15]+0.046*[#  23]
          +0.030*[#   4]+0.024*[#   8]+0.018*[#   5]+0.018*[#  13]+0.018*[#  21]
          +0.015*[#   1]+0.015*[#   9]+0.015*[#  29]+0.014*[#  18]+0.014*[#  26]
          +0.004*[#  19]+0.004*[#  20]+0.004*[#  27]+0.004*[#  28]+0.002*[#   2]
          +0.002*[#  10]+0.002*[#  30]+0.001*[#  17]+0.001*[#  25]
    |psi|^2 = 0.992
==== e(  12) =    -4.58453 eV ==== 
     psi = 0.142*[#   6]+0.142*[#  14]+0.142*[#  22]+0.115*[#   2]+0.115*[#  10]
          +0.115*[#  30]+0.017*[#   1]+0.017*[#   9]+0.017*[#  29]+0.017*[#   7]
          +0.015*[#  18]+0.015*[#  26]+0.014*[#   3]+0.013*[#  16]+0.013*[#  24]
          +0.011*[#  12]+0.011*[#  32]+0.005*[#  15]+0.005*[#  23]+0.005*[#  19]
          +0.005*[#  20]+0.005*[#  27]+0.005*[#  28]+0.004*[#  11]+0.004*[#  31]
          +0.004*[#   5]+0.004*[#  13]+0.004*[#  21]+0.003*[#  17]+0.003*[#  25]
          +0.001*[#   8]
    |psi|^2 = 0.986
==== e(  13) =    -0.15696 eV ==== 
     psi = 0.156*[#  18]+0.156*[#  26]+0.128*[#   2]+0.128*[#  10]+0.128*[#  30]
          +0.049*[#   6]+0.049*[#  14]+0.049*[#  22]+0.015*[#  17]+0.015*[#  25]
          +0.011*[#   1]+0.011*[#   9]+0.011*[#  29]+0.005*[#   7]+0.004*[#   3]
          +0.004*[#   5]+0.004*[#  12]+0.004*[#  13]+0.004*[#  21]+0.004*[#  32]
          +0.004*[#  16]+0.004*[#  24]+0.003*[#  11]+0.003*[#  31]+0.003*[#   4]
          +0.003*[#  19]+0.003*[#  20]+0.003*[#  27]+0.003*[#  28]+0.002*[#  15]
          +0.002*[#  23]
    |psi|^2 = 0.971
==== e(  14) =     0.47491 eV ==== 
     psi = 0.172*[#  18]+0.172*[#  26]+0.143*[#   2]+0.143*[#  10]+0.143*[#  30]
          +0.018*[#   6]+0.018*[#  14]+0.018*[#  22]+0.010*[#   1]+0.010*[#   9]
          +0.010*[#  29]+0.009*[#  17]+0.009*[#  25]+0.006*[#   7]+0.005*[#  16]
          +0.005*[#  24]+0.004*[#   3]+0.003*[#  12]+0.003*[#  32]+0.003*[#  15]
          +0.003*[#  23]+0.002*[#   8]+0.002*[#   5]+0.002*[#  13]+0.002*[#  21]
          +0.001*[#  11]+0.001*[#  31]
    |psi|^2 = 0.918
==== e(  15) =     2.00230 eV ==== 
     psi = 0.140*[#   2]+0.140*[#  10]+0.140*[#  30]+0.086*[#   6]+0.086*[#  14]
          +0.086*[#  22]+0.016*[#  18]+0.016*[#  26]+0.012*[#  19]+0.012*[#  20]
          +0.012*[#  27]+0.012*[#  28]+0.010*[#   1]+0.010*[#   9]+0.010*[#  29]
          +0.006*[#   3]+0.006*[#  12]+0.006*[#  32]+0.005*[#  11]+0.005*[#  31]
          +0.004*[#   4]+0.003*[#   7]+0.002*[#  16]+0.002*[#  24]+0.002*[#   5]
          +0.002*[#  13]+0.002*[#  21]+0.001*[#  15]+0.001*[#  23]
    |psi|^2 = 0.839
==== e(  16) =     2.89161 eV ==== 
     psi = 0.087*[#  17]+0.087*[#  25]+0.045*[#   1]+0.045*[#   9]+0.045*[#  29]
          +0.039*[#   4]+0.039*[#   6]+0.039*[#  14]+0.039*[#  22]+0.034*[#  18]
          +0.034*[#  26]+0.034*[#  19]+0.034*[#  20]+0.034*[#  27]+0.034*[#  28]
          +0.031*[#  11]+0.031*[#  31]+0.021*[#   5]+0.021*[#  13]+0.021*[#  21]
          +0.014*[#  12]+0.014*[#  32]+0.008*[#   2]+0.008*[#  10]+0.008*[#  30]
          +0.005*[#   3]+0.005*[#   8]+0.004*[#  15]+0.004*[#  23]+0.003*[#  16]
          +0.003*[#  24]+0.003*[#   7]
    |psi|^2 = 0.871

 k =   0.3125000000  0.5412658774  0.0000000000
==== e(   1) =   -16.39940 eV ==== 
     psi = 0.088*[#  17]+0.088*[#  25]+0.049*[#   5]+0.049*[#  13]+0.049*[#  21]
          +0.047*[#   1]+0.047*[#   9]+0.047*[#  29]+0.047*[#   8]+0.041*[#  15]
          +0.041*[#  23]+0.039*[#   4]+0.034*[#  11]+0.034*[#  31]+0.030*[#  16]
          +0.030*[#  24]+0.025*[#   7]+0.024*[#  12]+0.024*[#  32]+0.019*[#   3]
          +0.018*[#  19]+0.018*[#  20]+0.018*[#  27]+0.018*[#  28]+0.013*[#  18]
          +0.013*[#  26]+0.008*[#   2]+0.008*[#  10]+0.008*[#  30]
    |psi|^2 = 0.978
==== e(   2) =   -16.15297 eV ==== 
     psi = 0.085*[#  17]+0.085*[#  25]+0.051*[#   8]+0.045*[#   5]+0.045*[#  13]
          +0.045*[#  21]+0.044*[#  15]+0.044*[#  23]+0.043*[#   1]+0.043*[#   9]
          +0.043*[#  29]+0.042*[#   4]+0.037*[#  11]+0.037*[#  31]+0.031*[#  16]
          +0.031*[#  24]+0.025*[#   7]+0.025*[#  12]+0.025*[#  32]+0.021*[#  19]
          +0.021*[#  20]+0.021*[#  27]+0.021*[#  28]+0.019*[#   3]+0.013*[#  18]
          +0.013*[#  26]+0.007*[#   2]+0.007*[#  10]+0.007*[#  30]
    |psi|^2 = 0.977
==== e(   3) =   -14.14963 eV ==== 
     psi = 0.086*[#  19]+0.086*[#  20]+0.086*[#  27]+0.086*[#  28]+0.067*[#   5]
          +0.067*[#  13]+0.067*[#  21]+0.066*[#   1]+0.066*[#   9]+0.066*[#  29]
          +0.035*[#   3]+0.033*[#   7]+0.027*[#  12]+0.027*[#  32]+0.025*[#  16]
          +0.025*[#  24]+0.009*[#  11]+0.009*[#  31]+0.009*[#  15]+0.009*[#  23]
          +0.006*[#   2]+0.006*[#  10]+0.006*[#  30]
    |psi|^2 = 0.975
==== e(   4) =   -10.17708 eV ==== 
     psi = 0.085*[#   8]+0.079*[#   4]+0.072*[#  19]+0.072*[#  20]+0.072*[#  27]
          +0.072*[#  28]+0.064*[#  15]+0.064*[#  23]+0.061*[#  11]+0.061*[#  31]
          +0.025*[#  12]+0.025*[#  32]+0.023*[#   5]+0.023*[#  13]+0.023*[#  21]
          +0.023*[#  16]+0.023*[#  24]+0.018*[#   1]+0.018*[#   9]+0.018*[#  29]
          +0.017*[#  17]+0.017*[#  25]+0.007*[#   3]+0.005*[#  18]+0.005*[#  26]
          +0.003*[#   2]+0.003*[#  10]+0.003*[#  30]+0.002*[#   7]
    |psi|^2 = 0.986
==== e(   5) =    -9.95300 eV ==== 
     psi = 0.079*[#   8]+0.073*[#   4]+0.068*[#  19]+0.068*[#  20]+0.068*[#  27]
          +0.068*[#  28]+0.063*[#  15]+0.063*[#  23]+0.059*[#  11]+0.059*[#  31]
          +0.032*[#  12]+0.032*[#  32]+0.030*[#  16]+0.030*[#  24]+0.022*[#   5]
          +0.022*[#  13]+0.022*[#  21]+0.018*[#   3]+0.017*[#   1]+0.017*[#   9]
          +0.017*[#  29]+0.014*[#   7]+0.013*[#  17]+0.013*[#  25]+0.004*[#  18]
          +0.004*[#  26]+0.004*[#   2]+0.004*[#  10]+0.004*[#  30]
    |psi|^2 = 0.985
==== e(   6) =    -8.96546 eV ==== 
     psi = 0.112*[#   7]+0.111*[#   3]+0.087*[#  16]+0.087*[#  24]+0.086*[#  12]
          +0.086*[#  32]+0.035*[#  15]+0.035*[#  23]+0.035*[#  11]+0.035*[#  31]
          +0.029*[#  19]+0.029*[#  20]+0.029*[#  27]+0.029*[#  28]+0.020*[#   5]
          +0.020*[#  13]+0.020*[#  21]+0.017*[#   1]+0.017*[#   9]+0.017*[#  29]
          +0.010*[#   8]+0.009*[#   4]+0.005*[#   2]+0.005*[#  10]+0.005*[#  30]
          +0.004*[#   6]+0.004*[#  14]+0.004*[#  22]+0.001*[#  18]+0.001*[#  26]
          
    |psi|^2 = 0.982
==== e(   7) =    -8.06564 eV ==== 
     psi = 0.117*[#   8]+0.102*[#   4]+0.088*[#  15]+0.088*[#  23]+0.082*[#  19]
          +0.082*[#  20]+0.082*[#  27]+0.082*[#  28]+0.077*[#  11]+0.077*[#  31]
          +0.030*[#  16]+0.030*[#  24]+0.026*[#  12]+0.026*[#  32]
    |psi|^2 = 0.991
==== e(   8) =    -6.69071 eV ==== 
     psi = 0.137*[#  18]+0.137*[#  26]+0.107*[#   6]+0.107*[#  14]+0.107*[#  22]
          +0.077*[#   2]+0.077*[#  10]+0.077*[#  30]+0.022*[#  17]+0.022*[#  25]
          +0.013*[#   1]+0.013*[#   9]+0.013*[#  29]+0.006*[#   8]+0.006*[#  15]
          +0.006*[#  23]+0.005*[#  16]+0.005*[#  24]+0.004*[#   3]+0.004*[#   7]
          +0.004*[#  12]+0.004*[#  32]+0.003*[#  11]+0.003*[#  31]+0.002*[#  19]
          +0.002*[#  20]+0.002*[#  27]+0.002*[#  28]+0.002*[#   4]+0.001*[#   5]
          +0.001*[#  13]+0.001*[#  21]
    |psi|^2 = 0.968
==== e(   9) =    -6.38914 eV ==== 
     psi = 0.134*[#  18]+0.134*[#  26]+0.104*[#   6]+0.104*[#  14]+0.104*[#  22]
          +0.074*[#   2]+0.074*[#  10]+0.074*[#  30]+0.020*[#  17]+0.020*[#  25]
          +0.012*[#   1]+0.012*[#   9]+0.012*[#  29]+0.007*[#   8]+0.007*[#  15]
          +0.007*[#  23]+0.006*[#   3]+0.006*[#  16]+0.006*[#  24]+0.006*[#   7]
          +0.006*[#  12]+0.006*[#  32]+0.005*[#  11]+0.005*[#  31]+0.005*[#   4]
          +0.004*[#  19]+0.004*[#  20]+0.004*[#  27]+0.004*[#  28]+0.002*[#   5]
          +0.002*[#  13]+0.002*[#  21]
    |psi|^2 = 0.973
==== e(  10) =    -4.75124 eV ==== 
     psi = 0.084*[#   6]+0.084*[#  14]+0.084*[#  22]+0.069*[#   2]+0.069*[#  10]
          +0.069*[#  30]+0.059*[#   7]+0.054*[#   3]+0.047*[#  16]+0.047*[#  24]
          +0.044*[#  12]+0.044*[#  32]+0.024*[#  11]+0.024*[#  31]+0.023*[#  15]
          +0.023*[#  23]+0.018*[#   1]+0.018*[#   9]+0.018*[#  29]+0.014*[#   4]
          +0.011*[#   8]+0.009*[#   5]+0.009*[#  13]+0.009*[#  21]+0.006*[#  18]
          +0.006*[#  26]+0.005*[#  19]+0.005*[#  20]+0.005*[#  27]+0.005*[#  28]
          
    |psi|^2 = 0.987
==== e(  11) =    -4.72037 eV ==== 
     psi = 0.107*[#   3]+0.106*[#   7]+0.087*[#  12]+0.087*[#  32]+0.086*[#  16]
          +0.086*[#  24]+0.047*[#  11]+0.047*[#  31]+0.044*[#  15]+0.044*[#  23]
          +0.027*[#   4]+0.024*[#   8]+0.020*[#  18]+0.020*[#  26]+0.018*[#   1]
          +0.018*[#   9]+0.018*[#  29]+0.016*[#   5]+0.016*[#  13]+0.016*[#  21]
          +0.006*[#  19]+0.006*[#  20]+0.006*[#  27]+0.006*[#  28]+0.005*[#  17]
          +0.005*[#  25]+0.004*[#   2]+0.004*[#  10]+0.004*[#  30]+0.004*[#   6]
          +0.004*[#  14]+0.004*[#  22]
    |psi|^2 = 0.992
==== e(  12) =    -4.68981 eV ==== 
     psi = 0.074*[#   6]+0.074*[#  14]+0.074*[#  22]+0.064*[#   7]+0.062*[#   3]
          +0.060*[#   2]+0.060*[#  10]+0.060*[#  30]+0.051*[#  16]+0.051*[#  24]
          +0.050*[#  12]+0.050*[#  32]+0.026*[#  11]+0.026*[#  31]+0.025*[#  15]
          +0.025*[#  23]+0.017*[#   1]+0.017*[#   9]+0.017*[#  29]+0.014*[#   4]
          +0.012*[#   8]+0.011*[#  18]+0.011*[#  26]+0.011*[#   5]+0.011*[#  13]
          +0.011*[#  21]+0.005*[#  19]+0.005*[#  20]+0.005*[#  27]+0.005*[#  28]
          +0.001*[#  17]+0.001*[#  25]
    |psi|^2 = 0.988
==== e(  13) =     0.14632 eV ==== 
     psi = 0.167*[#  18]+0.167*[#  26]+0.133*[#   2]+0.133*[#  10]+0.133*[#  30]
          +0.038*[#   6]+0.038*[#  14]+0.038*[#  22]+0.014*[#  17]+0.014*[#  25]
          +0.011*[#   1]+0.011*[#   9]+0.011*[#  29]+0.005*[#   7]+0.004*[#   3]
          +0.004*[#  16]+0.004*[#  24]+0.003*[#  12]+0.003*[#  32]+0.003*[#   5]
          +0.003*[#  13]+0.003*[#  21]+0.002*[#  11]+0.002*[#  31]+0.002*[#   4]
          +0.002*[#  15]+0.002*[#  23]+0.002*[#  19]+0.002*[#  20]+0.002*[#  27]
          +0.002*[#  28]
    |psi|^2 = 0.958
==== e(  14) =     0.34463 eV ==== 
     psi = 0.169*[#  18]+0.169*[#  26]+0.140*[#   2]+0.140*[#  10]+0.140*[#  30]
          +0.026*[#   6]+0.026*[#  14]+0.026*[#  22]+0.011*[#  17]+0.011*[#  25]
          +0.010*[#   1]+0.010*[#   9]+0.010*[#  29]+0.005*[#   7]+0.004*[#   3]
          +0.004*[#  16]+0.004*[#  24]+0.003*[#  12]+0.003*[#  32]+0.002*[#  15]
          +0.002*[#  23]+0.002*[#   5]+0.002*[#  13]+0.002*[#  21]+0.002*[#   8]
          +0.002*[#  11]+0.002*[#  31]+0.001*[#  19]+0.001*[#  20]+0.001*[#  27]
          +0.001*[#  28]
    |psi|^2 = 0.935
==== e(  15) =     2.03511 eV ==== 
     psi = 0.143*[#   2]+0.143*[#  10]+0.143*[#  30]+0.094*[#   6]+0.094*[#  14]
          +0.094*[#  22]+0.013*[#  19]+0.013*[#  20]+0.013*[#  27]+0.013*[#  28]
          +0.013*[#   1]+0.013*[#   9]+0.013*[#  29]+0.009*[#   3]+0.008*[#  12]
          +0.008*[#  32]+0.004*[#  11]+0.004*[#  18]+0.004*[#  26]+0.004*[#  31]
          +0.003*[#   4]+0.003*[#   7]+0.002*[#   5]+0.002*[#  13]+0.002*[#  21]
          +0.002*[#  16]+0.002*[#  24]+0.001*[#  17]+0.001*[#  25]
    |psi|^2 = 0.868
==== e(  16) =     2.91395 eV ==== 
     psi = 0.091*[#  17]+0.091*[#  25]+0.045*[#   1]+0.045*[#   9]+0.045*[#  29]
          +0.037*[#   6]+0.037*[#  14]+0.037*[#  22]+0.034*[#   4]+0.033*[#  18]
          +0.033*[#  26]+0.029*[#  19]+0.029*[#  20]+0.029*[#  27]+0.029*[#  28]
          +0.027*[#  11]+0.027*[#  31]+0.024*[#   5]+0.024*[#  13]+0.024*[#  21]
          +0.014*[#   2]+0.014*[#  10]+0.014*[#  30]+0.013*[#  12]+0.013*[#  32]
          +0.006*[#   3]+0.005*[#   8]+0.004*[#  15]+0.004*[#  23]+0.004*[#  16]
          +0.004*[#  24]+0.004*[#   7]
    |psi|^2 = 0.868

Lowdin Charges: 

     Atom #   1: total charge =   2.8949, s =  0.6086, 
     Atom #   1: total charge =   2.8949, p =  2.2863, pz=  0.6007, px=  0.8658, py=  0.8197, 
     Atom #   2: total charge =   3.1070, s =  0.5666, 
     Atom #   2: total charge =   3.1070, p =  2.5405, pz=  0.7761, px=  0.8749, py=  0.8894, 
     Atom #   3: total charge =   2.8949, s =  0.6086, 
     Atom #   3: total charge =   2.8949, p =  2.2863, pz=  0.6007, px=  0.8313, py=  0.8543, 
     Atom #   4: total charge =   3.1070, s =  0.5666, 
     Atom #   4: total charge =   3.1070, p =  2.5405, pz=  0.7761, px=  0.8858, py=  0.8785, 
     Atom #   5: total charge =   2.7785, s =  0.5406, 
     Atom #   5: total charge =   2.7785, p =  2.2379, pz=  0.6766, px=  0.7807, py=  0.7807, 
     Atom #   6: total charge =   3.1070, s =  0.5666, 
     Atom #   6: total charge =   3.1070, p =  2.5405, pz=  0.7761, px=  0.8858, py=  0.8785, 
     Atom #   7: total charge =   2.7785, s =  0.5406, 
     Atom #   7: total charge =   2.7785, p =  2.2379, pz=  0.6766, px=  0.7807, py=  0.7807, 
     Atom #   8: total charge =   2.8949, s =  0.6086, 
     Atom #   8: total charge =   2.8949, p =  2.2863, pz=  0.6007, px=  0.8313, py=  0.8543, 
     Spilling Parameter:   0.0182

     PROJWFC      :      4.71s CPU      3.84s WALL


   This run was terminated on:  11:40: 3   1Aug2025            

=------------------------------------------------------------------------------=
   JOB DONE.
=------------------------------------------------------------------------------=
