
     Program PWSCF v.7.2 starts on  1Aug2025 at 11:35:16 

     This program is part of the open-source Quantum ESPRESSO suite
     for quantum simulation of materials; please cite
         "P. Giannozzi et al., J. Phys.:Condens. Matter 21 395502 (2009);
         "P. Giannozzi et al., J. Phys.:Condens. Matter 29 465901 (2017);
         "P. Giannozzi et al., J. Chem. Phys. 152 154105 (2020);
          URL http://www.quantum-espresso.org", 
     in publications or presentations arising from this work. More details at
     http://www.quantum-espresso.org/quote

     Parallel version (MPI & OpenMP), running on       2 processor cores
     Number of MPI processes:                 1
     Threads/MPI process:                     2

     MPI processes distributed on     1 nodes
     330 MiB available memory on the printing compute node when the environment starts

     Reading input from just_alpha_relaxed.nscf.in
Warning: card  &IONS ignored
Warning: card  / ignored

     Current dimensions of program PWSCF are:
     Max number of different atomic species (ntypx) = 10
     Max number of k-points (npk) =  40000
     Max angular momentum in pseudopotentials (lmaxx) =  4

     Atomic positions and unit cell read from directory:
     ../../outdir/borophene.save/
     Atomic positions from file used, from input discarded

     file B.pbesol-n-rrkjus_psl.1.0.0.UPF: wavefunction(s)  2S renormalized

     Subspace diagonalization in iterative solution of the eigenvalue problem:
     a serial algorithm will be used


     G-vector sticks info
     --------------------
     sticks:   dense  smooth     PW     G-vecs:    dense   smooth      PW
     Sum        1357    1357    379               149567   149567   22137

     Using Slab Decomposition



     bravais-lattice index     =            4
     lattice parameter (alat)  =       9.0360  a.u.
     unit-cell volume          =    2382.6030 (a.u.)^3
     number of atoms/cell      =            8
     number of atomic types    =            1
     number of electrons       =        24.00
     number of Kohn-Sham states=           16
     kinetic-energy cutoff     =      60.0000  Ry
     charge density cutoff     =     240.0000  Ry
     Exchange-correlation= PBESOL
                           (   1   4  10   8   0   0   0)

     celldm(1)=   9.036000  celldm(2)=   0.000000  celldm(3)=   3.729000
     celldm(4)=   0.000000  celldm(5)=   0.000000  celldm(6)=   0.000000

     crystal axes: (cart. coord. in units of alat)
               a(1) = (   1.000000   0.000000   0.000000 )  
               a(2) = (  -0.500000   0.866025   0.000000 )  
               a(3) = (   0.000000   0.000000   3.729000 )  

     reciprocal axes: (cart. coord. in units 2 pi/alat)
               b(1) = (  1.000000  0.577350 -0.000000 )  
               b(2) = (  0.000000  1.154701  0.000000 )  
               b(3) = (  0.000000 -0.000000  0.268168 )  


     PseudoPot. # 1 for B  read from file:
     ../../pseudo/B.pbesol-n-rrkjus_psl.1.0.0.UPF
     MD5 check sum: a3839a09b1a4e02f2a06a66adc9253fc
     Pseudo is Ultrasoft + core correction, Zval =  3.0
     Generated using &quot;atomic&quot; code by A. Dal Corso  v.6.3MaX
     Using radial grid of 1059 points,  4 beta functions with: 
                l(1) =   0
                l(2) =   0
                l(3) =   1
                l(4) =   1
     Q(r) pseudized with 0 coefficients 


     atomic species   valence    mass     pseudopotential
        B              3.00    10.81100     B ( 1.00)

      6 Sym. Ops. (no inversion) found



   Cartesian axes

     site n.     atom                  positions (alat units)
         1           B   tau(   1) = (   0.3335585   0.0000000   0.8206364  )
         2           B   tau(   2) = (   0.6788599   0.0000000   0.8910164  )
         3           B   tau(   3) = (  -0.1667792   0.2888701   0.8206364  )
         4           B   tau(   4) = (   0.1605701   0.2781155   0.8910164  )
         5           B   tau(   5) = (   0.5000005   0.2886748   0.9506643  )
         6           B   tau(   6) = (  -0.3394299   0.5879099   0.8910164  )
         7           B   tau(   7) = (  -0.0000005   0.5773506   0.9506643  )
         8           B   tau(   8) = (   0.3332208   0.5771553   0.8206364  )

     number of k points=    30 (tetrahedron method)
                       cart. coord. in units 2pi/alat
        k(    1) = (   0.0000000   0.0000000   0.0000000), wk =   0.0078125
        k(    2) = (   0.0000000   0.0721688   0.0000000), wk =   0.0468750
        k(    3) = (   0.0000000   0.1443376   0.0000000), wk =   0.0468750
        k(    4) = (   0.0000000   0.2165064   0.0000000), wk =   0.0468750
        k(    5) = (   0.0000000   0.2886751   0.0000000), wk =   0.0468750
        k(    6) = (   0.0000000   0.3608439   0.0000000), wk =   0.0468750
        k(    7) = (   0.0000000   0.4330127   0.0000000), wk =   0.0468750
        k(    8) = (   0.0000000   0.5051815   0.0000000), wk =   0.0468750
        k(    9) = (   0.0000000  -0.5773503   0.0000000), wk =   0.0234375
        k(   10) = (   0.0625000   0.1082532   0.0000000), wk =   0.0468750
        k(   11) = (   0.0625000   0.1804220   0.0000000), wk =   0.0937500
        k(   12) = (   0.0625000   0.2525907   0.0000000), wk =   0.0937500
        k(   13) = (   0.0625000   0.3247595   0.0000000), wk =   0.0937500
        k(   14) = (   0.0625000   0.3969283   0.0000000), wk =   0.0937500
        k(   15) = (   0.0625000   0.4690971   0.0000000), wk =   0.0937500
        k(   16) = (   0.0625000   0.5412659   0.0000000), wk =   0.0937500
        k(   17) = (   0.1250000   0.2165064   0.0000000), wk =   0.0468750
        k(   18) = (   0.1250000   0.2886751   0.0000000), wk =   0.0937500
        k(   19) = (   0.1250000   0.3608439   0.0000000), wk =   0.0937500
        k(   20) = (   0.1250000   0.4330127   0.0000000), wk =   0.0937500
        k(   21) = (   0.1250000   0.5051815   0.0000000), wk =   0.0937500
        k(   22) = (   0.1250000   0.5773503   0.0000000), wk =   0.0468750
        k(   23) = (   0.1875000   0.3247595   0.0000000), wk =   0.0468750
        k(   24) = (   0.1875000   0.3969283   0.0000000), wk =   0.0937500
        k(   25) = (   0.1875000   0.4690971   0.0000000), wk =   0.0937500
        k(   26) = (   0.1875000   0.5412659   0.0000000), wk =   0.0937500
        k(   27) = (   0.2500000   0.4330127   0.0000000), wk =   0.0468750
        k(   28) = (   0.2500000   0.5051815   0.0000000), wk =   0.0937500
        k(   29) = (   0.2500000   0.5773503   0.0000000), wk =   0.0468750
        k(   30) = (   0.3125000   0.5412659   0.0000000), wk =   0.0468750

     Dense  grid:   149567 G-vectors     FFT dimensions: (  45,  45, 180)

     Estimated max dynamical RAM per process >     185.21 MB

     Check: negative core charge=   -0.000001

     The potential is recalculated from file :
     ../../outdir/borophene.save/charge-density


     negative rho (up, down):  1.037E-03 0.000E+00
     Starting wfcs are   32 randomized atomic wfcs

     Band Structure Calculation
     Davidson diagonalization with overlap

     ethr =  4.17E-09,  avg # of iterations = 29.8

     total cpu time spent up to now is      221.1 secs

     End of band structure calculation

          k = 0.0000 0.0000 0.0000 ( 18635 PWs)   bands (ev):

   -17.7191 -13.0004 -12.7628 -12.7627 -10.5738 -10.5738  -9.1845  -8.5582
    -2.1323  -2.1323  -1.7875  -1.6636  -1.6636  -1.1743  -1.1743  -0.5297

          k = 0.0000 0.0722 0.0000 ( 18669 PWs)   bands (ev):

   -17.6986 -13.3599 -12.7890 -12.4231 -10.6508 -10.5133  -9.0584  -8.5037
    -2.5427  -2.4382  -2.1330  -1.7760  -1.4507  -0.9264  -0.7943  -0.4774

          k = 0.0000 0.1443 0.0000 ( 18641 PWs)   bands (ev):

   -17.6374 -13.8165 -12.8585 -12.0582 -10.7623 -10.3421  -8.8031  -8.3122
    -3.2193  -2.9919  -2.6115  -2.0536  -1.4591  -0.4281  -0.4051  -0.0486

          k = 0.0000 0.2165 0.0000 ( 18647 PWs)   bands (ev):

   -17.5364 -14.2686 -12.9507 -11.8728 -10.6948 -10.0841  -8.5699  -7.9664
    -3.9038  -3.5985  -3.1549  -2.3633  -1.5831  -0.2208   0.1640   0.6361

          k = 0.0000 0.2887 0.0000 ( 18683 PWs)   bands (ev):

   -17.3976 -14.7043 -13.0459 -11.9000 -10.3772  -9.7663  -8.3532  -7.5720
    -4.5594  -4.1960  -3.6942  -2.6393  -1.7355  -0.0017   0.7464   1.3036

          k = 0.0000 0.3608 0.0000 ( 18709 PWs)   bands (ev):

   -17.2253 -15.1134 -13.1304 -12.0060  -9.9350  -9.4167  -8.1270  -7.2626
    -5.1716  -4.7288  -4.1556  -2.8613  -1.8768   0.2274   1.2732   1.9416

          k = 0.0000 0.4330 0.0000 ( 18712 PWs)   bands (ev):

   -17.0294 -15.4816 -13.1956 -12.1066  -9.4669  -9.0729  -7.9119  -7.1338
    -5.7272  -5.1519  -4.4487  -3.0236  -1.9894   0.4460   1.6564   2.5707

          k = 0.0000 0.5052 0.0000 ( 18732 PWs)   bands (ev):

   -16.8393 -15.7763 -13.2364 -12.1731  -9.0573  -8.7948  -7.8020  -7.1093
    -6.1880  -5.4429  -4.5458  -3.1233  -2.0625   0.6159   1.8510   3.1551

          k = 0.0000-0.5774 0.0000 ( 18712 PWs)   bands (ev):

   -16.7447 -15.9060 -13.2502 -12.1960  -8.8731  -8.6746  -7.8220  -7.0553
    -6.4086  -5.5529  -4.5535  -3.1573  -2.0880   0.6828   1.9016   3.4684

          k = 0.0625 0.1083 0.0000 ( 18663 PWs)   bands (ev):

   -17.6577 -13.6913 -12.8487 -12.1290 -10.7580 -10.3867  -8.8729  -8.3799
    -3.0024  -2.8753  -2.4550  -2.0415  -1.2935  -0.7709  -0.3398  -0.2329

          k = 0.0625 0.1804 0.0000 ( 18648 PWs)   bands (ev):

   -17.5766 -14.1025 -12.9560 -11.8353 -10.8275 -10.1491  -8.6488  -8.1018
    -3.6168  -3.4391  -2.9183  -2.4020  -1.2766  -0.4947  -0.0400   0.4583

          k = 0.0625 0.2526 0.0000 ( 18678 PWs)   bands (ev):

   -17.4566 -14.5239 -13.0787 -11.7293 -10.6694  -9.8372  -8.4407  -7.7246
    -4.2627  -4.0129  -3.4352  -2.7299  -1.3918  -0.1926   0.4048   1.1439

          k = 0.0625 0.3248 0.0000 ( 18679 PWs)   bands (ev):

   -17.3005 -14.9335 -13.1944 -11.7884 -10.2962  -9.4833  -8.2261  -7.3768
    -4.8821  -4.5461  -3.9315  -2.9962  -1.5300   0.0758   0.9224   1.7789

          k = 0.0625 0.3969 0.0000 ( 18703 PWs)   bands (ev):

   -17.1145 -15.3159 -13.2896 -11.8827  -9.8427  -9.1210  -8.0106  -7.1791
    -5.4518  -4.9742  -4.3233  -3.1975  -1.6525   0.3210   1.4058   2.3509

          k = 0.0625 0.4691 0.0000 ( 18718 PWs)   bands (ev):

   -16.9150 -15.6493 -13.3564 -11.9581  -9.3929  -8.7977  -7.8666  -7.1390
    -5.9537  -5.2773  -4.5213  -3.3344  -1.7428   0.5284   1.7442   2.8751

          k = 0.0625 0.5413 0.0000 ( 18710 PWs)   bands (ev):

   -16.7548 -15.8773 -13.3908 -11.9982  -9.0605  -8.5863  -7.9011  -7.0654
    -6.3199  -5.4558  -4.5580  -3.4051  -1.7910   0.6555   1.8909   3.2884

          k = 0.1250 0.2165 0.0000 ( 18653 PWs)   bands (ev):

   -17.4763 -14.4503 -13.1258 -11.5517 -10.8857  -9.8366  -8.4725  -7.7811
    -4.0853  -4.0145  -3.3013  -2.8508  -1.0206  -0.4691   0.2635   1.1255

          k = 0.1250 0.2887 0.0000 ( 18695 PWs)   bands (ev):

   -17.3384 -14.8177 -13.3041 -11.4164 -10.7294  -9.4719  -8.2813  -7.4503
    -4.6416  -4.5119  -3.7325  -3.2267  -0.9973  -0.2130   0.6223   1.7746

          k = 0.1250 0.3608 0.0000 ( 18699 PWs)   bands (ev):

   -17.1668 -15.1822 -13.4576 -11.4556 -10.3384  -9.0972  -8.0859  -7.2341
    -5.1859  -4.8918  -4.1502  -3.5052  -1.0817   0.1047   1.0528   2.3211

          k = 0.1250 0.4330 0.0000 ( 18691 PWs)   bands (ev):

   -16.9707 -15.5234 -13.5721 -11.5227  -9.8762  -8.7525  -7.9572  -7.1804
    -5.6869  -5.1035  -4.4585  -3.6996  -1.1686   0.3765   1.4913   2.7212

          k = 0.1250 0.5052 0.0000 ( 18729 PWs)   bands (ev):

   -16.7775 -15.8065 -13.6422 -11.5703  -9.4405  -8.4926  -8.0404  -7.0973
    -6.1175  -5.2326  -4.5707  -3.8190  -1.2286   0.5686   1.8124   3.0134

          k = 0.1250 0.5774 0.0000 ( 18714 PWs)   bands (ev):

   -16.6785 -15.9359 -13.6657 -11.5870  -9.2210  -8.3863  -8.1761  -6.9870
    -6.3345  -5.2941  -4.5749  -3.8607  -1.2500   0.6405   1.9220   3.1635

          k = 0.1875 0.3248 0.0000 ( 18717 PWs)   bands (ev):

   -17.1845 -15.1281 -13.5316 -11.0921 -10.7211  -9.0847  -8.1133  -7.2567
    -5.0315  -4.9148  -4.0497  -3.6578  -0.6834  -0.1482   0.9001   2.3490

          k = 0.1875 0.3969 0.0000 ( 18703 PWs)   bands (ev):

   -16.9999 -15.4399 -13.7162 -11.0280 -10.3899  -8.7235  -8.0118  -7.2088
    -5.4770  -5.0472  -4.3613  -3.9664  -0.6146   0.1158   1.2514   2.7264

          k = 0.1875 0.4691 0.0000 ( 18719 PWs)   bands (ev):

   -16.7981 -15.7321 -13.8423 -11.0631  -9.9243  -8.4319  -8.1405  -7.1300
    -5.9065  -5.0325  -4.5757  -4.1612  -0.6425   0.3933   1.6329   2.8998

          k = 0.1875 0.5413 0.0000 ( 18720 PWs)   bands (ev):

   -16.6266 -15.9507 -13.9057 -11.0878  -9.5252  -8.4330  -8.2553  -6.9447
    -6.2465  -5.0555  -4.6115  -4.2634  -0.6680   0.5559   1.9095   2.9756

          k = 0.2500 0.4330 0.0000 ( 18729 PWs)   bands (ev):

   -16.8061 -15.6998 -13.9181 -10.6470 -10.3358  -8.4090  -8.1764  -7.1430
    -5.8067  -4.9711  -4.5513  -4.3124  -0.2752   0.1929   1.5275   2.9392

          k = 0.2500 0.5052 0.0000 ( 18737 PWs)   bands (ev):

   -16.6031 -15.9436 -14.0435 -10.5736  -9.9590  -8.5547  -8.1925  -6.9392
    -6.1409  -4.8640  -4.6679  -4.5117  -0.1695   0.3804   1.8357   2.9440

          k = 0.2500 0.5774 0.0000 ( 18733 PWs)   bands (ev):

   -16.4805 -16.0801 -14.0857 -10.5745  -9.6912  -8.8128  -8.1142  -6.7738
    -6.3443  -4.8634  -4.6544  -4.5845  -0.1570   0.4749   2.0023   2.8916

          k = 0.3125 0.5413 0.0000 ( 18743 PWs)   bands (ev):

   -16.3994 -16.1530 -14.1496 -10.1771  -9.9530  -8.9655  -8.0656  -6.6907
    -6.3891  -4.7512  -4.7204  -4.6898   0.1463   0.3446   2.0351   2.9139

     the Fermi energy is    -1.9497 ev
     (compare with:    -2.0286 eV, computed in scf)

     Writing all to output data dir ../../outdir/borophene.save/

     init_run     :      1.64s CPU      1.45s WALL (       1 calls)
     electrons    :    303.35s CPU    219.63s WALL (       1 calls)

     Called by init_run:
     wfcinit      :      0.00s CPU      0.00s WALL (       1 calls)
     potinit      :      0.19s CPU      0.16s WALL (       1 calls)
     hinit0       :      1.23s CPU      1.08s WALL (       1 calls)

     Called by electrons:
     c_bands      :    303.33s CPU    219.61s WALL (       1 calls)
     v_of_rho     :      0.19s CPU      0.14s WALL (       1 calls)
     newd         :      0.10s CPU      0.11s WALL (       1 calls)

     Called by c_bands:
     init_us_2    :      0.22s CPU      0.22s WALL (      30 calls)
     init_us_2:cp :      0.22s CPU      0.22s WALL (      30 calls)
     cegterg      :    279.71s CPU    204.00s WALL (      60 calls)

     Called by *egterg:
     cdiaghg      :      0.54s CPU      0.38s WALL (     923 calls)
     h_psi        :    270.82s CPU    198.07s WALL (     983 calls)
     s_psi        :      7.54s CPU      4.30s WALL (     983 calls)
     g_psi        :      1.02s CPU      0.88s WALL (     893 calls)

     Called by h_psi:
     h_psi:calbec :      6.78s CPU      6.04s WALL (     983 calls)
     vloc_psi     :    257.64s CPU    187.86s WALL (     983 calls)
     add_vuspsi   :      5.38s CPU      3.26s WALL (     983 calls)

     General routines
     calbec       :      6.77s CPU      6.04s WALL (     983 calls)
     fft          :      1.00s CPU      0.87s WALL (      12 calls)
     fftw         :    225.23s CPU    164.31s WALL (   17322 calls)
     davcio       :      0.06s CPU      0.15s WALL (      60 calls)

     Parallel routines

     PWSCF        :   5m 5.25s CPU   3m41.54s WALL


   This run was terminated on:  11:38:57   1Aug2025            

=------------------------------------------------------------------------------=
   JOB DONE.
=------------------------------------------------------------------------------=
