
     Program PWSCF v.7.2 starts on  1Aug2025 at 11:24:13 

     This program is part of the open-source Quantum ESPRESSO suite
     for quantum simulation of materials; please cite
         "P. Giannozzi et al., J. Phys.:Condens. Matter 21 395502 (2009);
         "P. Giannozzi et al., J. Phys.:Condens. Matter 29 465901 (2017);
         "P. Giannozzi et al., J. Chem. Phys. 152 154105 (2020);
          URL http://www.quantum-espresso.org", 
     in publications or presentations arising from this work. More details at
     http://www.quantum-espresso.org/quote

     Parallel version (MPI & OpenMP), running on       2 processor cores
     Number of MPI processes:                 1
     Threads/MPI process:                     2

     MPI processes distributed on     1 nodes
     329 MiB available memory on the printing compute node when the environment starts

     Reading input from just_alpha_relaxed.scf.in

     Current dimensions of program PWSCF are:
     Max number of different atomic species (ntypx) = 10
     Max number of k-points (npk) =  40000
     Max angular momentum in pseudopotentials (lmaxx) =  4
     file B.pbesol-n-rrkjus_psl.1.0.0.UPF: wavefunction(s)  2S renormalized

     Subspace diagonalization in iterative solution of the eigenvalue problem:
     a serial algorithm will be used


     G-vector sticks info
     --------------------
     sticks:   dense  smooth     PW     G-vecs:    dense   smooth      PW
     Sum        1357    1357    379               149567   149567   22271

     Using Slab Decomposition



     bravais-lattice index     =            4
     lattice parameter (alat)  =       9.0360  a.u.
     unit-cell volume          =    2382.6030 (a.u.)^3
     number of atoms/cell      =            8
     number of atomic types    =            1
     number of electrons       =        24.00
     number of Kohn-Sham states=           16
     kinetic-energy cutoff     =      60.0000  Ry
     charge density cutoff     =     240.0000  Ry
     scf convergence threshold =      1.0E-06
     mixing beta               =       0.7000
     number of iterations used =            8  plain     mixing
     Exchange-correlation= PBESOL
                           (   1   4  10   8   0   0   0)

     celldm(1)=   9.036000  celldm(2)=   0.000000  celldm(3)=   3.729000
     celldm(4)=   0.000000  celldm(5)=   0.000000  celldm(6)=   0.000000

     crystal axes: (cart. coord. in units of alat)
               a(1) = (   1.000000   0.000000   0.000000 )  
               a(2) = (  -0.500000   0.866025   0.000000 )  
               a(3) = (   0.000000   0.000000   3.729000 )  

     reciprocal axes: (cart. coord. in units 2 pi/alat)
               b(1) = (  1.000000  0.577350 -0.000000 )  
               b(2) = (  0.000000  1.154701  0.000000 )  
               b(3) = (  0.000000 -0.000000  0.268168 )  


     PseudoPot. # 1 for B  read from file:
     ../../pseudo/B.pbesol-n-rrkjus_psl.1.0.0.UPF
     MD5 check sum: a3839a09b1a4e02f2a06a66adc9253fc
     Pseudo is Ultrasoft + core correction, Zval =  3.0
     Generated using &quot;atomic&quot; code by A. Dal Corso  v.6.3MaX
     Using radial grid of 1059 points,  4 beta functions with: 
                l(1) =   0
                l(2) =   0
                l(3) =   1
                l(4) =   1
     Q(r) pseudized with 0 coefficients 


     atomic species   valence    mass     pseudopotential
        B              3.00    10.81100     B ( 1.00)

      6 Sym. Ops. (no inversion) found



   Cartesian axes

     site n.     atom                  positions (alat units)
         1           B   tau(   1) = (   0.3335585   0.0000000   0.8206364  )
         2           B   tau(   2) = (   0.6788599   0.0000000   0.8910164  )
         3           B   tau(   3) = (  -0.1667792   0.2888701   0.8206364  )
         4           B   tau(   4) = (   0.1605701   0.2781155   0.8910164  )
         5           B   tau(   5) = (   0.5000005   0.2886748   0.9506643  )
         6           B   tau(   6) = (  -0.3394299   0.5879099   0.8910164  )
         7           B   tau(   7) = (  -0.0000005   0.5773506   0.9506643  )
         8           B   tau(   8) = (   0.3332208   0.5771553   0.8206364  )

     number of k points=     7  Marzari-Vanderbilt smearing, width (Ry)=  0.0200
                       cart. coord. in units 2pi/alat
        k(    1) = (   0.0000000   0.0000000   0.0000000), wk =   0.0555556
        k(    2) = (   0.0000000   0.1924501   0.0000000), wk =   0.3333333
        k(    3) = (   0.0000000   0.3849002   0.0000000), wk =   0.3333333
        k(    4) = (   0.0000000  -0.5773503   0.0000000), wk =   0.1666667
        k(    5) = (   0.1666667   0.2886751   0.0000000), wk =   0.3333333
        k(    6) = (   0.1666667   0.4811252   0.0000000), wk =   0.6666667
        k(    7) = (   0.3333333   0.5773503   0.0000000), wk =   0.1111111

     Dense  grid:   149567 G-vectors     FFT dimensions: (  45,  45, 180)

     Estimated max dynamical RAM per process >     258.75 MB

     Check: negative core charge=   -0.000001

     Initial potential from superposition of free atoms

     starting charge      23.9977, renormalised to      24.0000

     negative rho (up, down):  5.167E-05 0.000E+00
     Starting wfcs are   32 randomized atomic wfcs

     total cpu time spent up to now is        7.8 secs

     per-process dynamical memory:   137.0 Mb

     Self-consistent Calculation

     iteration #  1     ecut=    60.00 Ry     beta= 0.70
     Davidson diagonalization with overlap
     ethr =  1.00E-02,  avg # of iterations =  2.1
     Minimization algorithm failed to find Fermi energy: reverting to bisection
     Possible cause: smearing is larger than the electronic band-gap.

     negative rho (up, down):  5.527E-04 0.000E+00

     total cpu time spent up to now is       19.2 secs

     total energy              =     -49.60416933 Ry
     estimated scf accuracy    <       1.06968170 Ry

     iteration #  2     ecut=    60.00 Ry     beta= 0.70
     Davidson diagonalization with overlap
     ethr =  4.46E-03,  avg # of iterations =  2.6

     negative rho (up, down):  7.824E-04 0.000E+00

     total cpu time spent up to now is       30.8 secs

     total energy              =     -49.81040566 Ry
     estimated scf accuracy    <       0.05677626 Ry

     iteration #  3     ecut=    60.00 Ry     beta= 0.70
     Davidson diagonalization with overlap
     ethr =  2.37E-04,  avg # of iterations =  6.0

     negative rho (up, down):  9.334E-04 0.000E+00

     total cpu time spent up to now is       45.3 secs

     total energy              =     -49.82293661 Ry
     estimated scf accuracy    <       0.00364122 Ry

     iteration #  4     ecut=    60.00 Ry     beta= 0.70
     Davidson diagonalization with overlap
     ethr =  1.52E-05,  avg # of iterations =  5.7

     negative rho (up, down):  9.842E-04 0.000E+00

     total cpu time spent up to now is       58.7 secs

     total energy              =     -49.82344627 Ry
     estimated scf accuracy    <       0.00098833 Ry

     iteration #  5     ecut=    60.00 Ry     beta= 0.70
     Davidson diagonalization with overlap
     ethr =  4.12E-06,  avg # of iterations =  3.4

     negative rho (up, down):  1.019E-03 0.000E+00

     total cpu time spent up to now is       68.0 secs

     total energy              =     -49.82362087 Ry
     estimated scf accuracy    <       0.00119210 Ry

     iteration #  6     ecut=    60.00 Ry     beta= 0.70
     Davidson diagonalization with overlap
     ethr =  4.12E-06,  avg # of iterations =  2.0

     negative rho (up, down):  1.037E-03 0.000E+00

     total cpu time spent up to now is       75.6 secs

     total energy              =     -49.82382466 Ry
     estimated scf accuracy    <       0.00001663 Ry

     iteration #  7     ecut=    60.00 Ry     beta= 0.70
     Davidson diagonalization with overlap
     ethr =  6.93E-08,  avg # of iterations =  2.9

     negative rho (up, down):  1.037E-03 0.000E+00

     total cpu time spent up to now is       83.4 secs

     End of self-consistent calculation

          k = 0.0000 0.0000 0.0000 ( 18635 PWs)   bands (ev):

   -17.7196 -13.0009 -12.7635 -12.7635 -10.5745 -10.5744  -9.1844  -8.5589
    -2.1321  -2.1321  -1.7921  -1.6634  -1.6633  -1.1713  -1.1713  -0.5303

          k = 0.0000 0.1925 0.0000 ( 18645 PWs)   bands (ev):

   -17.5749 -14.1198 -12.9195 -11.9080 -10.7482 -10.1788  -8.6436  -8.0948
    -3.6785  -3.3943  -2.9713  -2.2612  -1.5360  -0.2900  -0.0296   0.4071

          k = 0.0000 0.3849 0.0000 ( 18717 PWs)   bands (ev):

   -17.1624 -15.2422 -13.1554 -12.0428  -9.7789  -9.2998  -8.0518  -7.1987
    -5.3644  -4.8831  -4.2762  -2.9216  -1.9188   0.3028   1.4221   2.1513

          k = 0.0000-0.5774 0.0000 ( 18712 PWs)   bands (ev):

   -16.7453 -15.9066 -13.2511 -12.1965  -8.8740  -8.6754  -7.8223  -7.0561
    -6.4085  -5.5529  -4.5532  -3.1567  -2.0888   0.6828   1.9019   3.4683

          k = 0.1667 0.2887 0.0000 ( 18703 PWs)   bands (ev):

   -17.2935 -14.9136 -13.3919 -11.2404 -10.8065  -9.3417  -8.2279  -7.3751
    -4.7345  -4.6851  -3.8217  -3.4004  -0.8056  -0.2617   0.6901   1.9803

          k = 0.1667 0.4811 0.0000 ( 18701 PWs)   bands (ev):

   -16.7928 -15.7550 -13.7875 -11.2366  -9.7570  -8.4493  -8.1140  -7.1213
    -5.9717  -5.0866  -4.5774  -4.0618  -0.8323   0.4642   1.6976   2.9153

          k = 0.3333 0.5774 0.0000 ( 18777 PWs)   bands (ev):

   -16.2769 -16.2769 -14.1688 -10.0165 -10.0165  -9.0676  -8.0453  -6.5392
    -6.5392  -4.7537  -4.7126  -4.7126   0.2714   0.2714   2.0828   2.9057

     the Fermi energy is    -2.0286 ev

!    total energy              =     -49.82382874 Ry
     estimated scf accuracy    <       0.00000078 Ry
     smearing contrib. (-TS)   =      -0.00133095 Ry
     internal energy E=F+TS    =     -49.82249779 Ry

     The total energy is F=E-TS. E is the sum of the following terms:
     one-electron contribution =    -438.34473909 Ry
     hartree contribution      =     223.18346569 Ry
     xc contribution           =     -23.64676640 Ry
     ewald contribution        =     188.98554201 Ry

     convergence has been achieved in   7 iterations

     Writing all to output data dir ../../outdir/borophene.save/

     init_run     :     10.97s CPU      7.69s WALL (       1 calls)
     electrons    :    107.20s CPU     75.58s WALL (       1 calls)

     Called by init_run:
     wfcinit      :      8.58s CPU      5.53s WALL (       1 calls)
     potinit      :      0.41s CPU      0.29s WALL (       1 calls)
     hinit0       :      1.75s CPU      1.60s WALL (       1 calls)

     Called by electrons:
     c_bands      :     86.73s CPU     59.92s WALL (       7 calls)
     sum_band     :     17.75s CPU     13.12s WALL (       7 calls)
     v_of_rho     :      1.87s CPU      1.39s WALL (       8 calls)
     newd         :      0.96s CPU      1.20s WALL (       8 calls)
     mix_rho      :      0.25s CPU      0.25s WALL (       7 calls)

     Called by c_bands:
     init_us_2    :      0.90s CPU      0.82s WALL (     105 calls)
     init_us_2:cp :      0.90s CPU      0.82s WALL (     105 calls)
     cegterg      :     85.16s CPU     58.61s WALL (      49 calls)

     Called by *egterg:
     cdiaghg      :      0.16s CPU      0.11s WALL (     222 calls)
     h_psi        :     84.57s CPU     57.92s WALL (     229 calls)
     s_psi        :      2.26s CPU      1.30s WALL (     229 calls)
     g_psi        :      0.23s CPU      0.23s WALL (     173 calls)

     Called by h_psi:
     h_psi:calbec :      2.32s CPU      1.94s WALL (     229 calls)
     vloc_psi     :     79.82s CPU     54.46s WALL (     229 calls)
     add_vuspsi   :      2.11s CPU      1.19s WALL (     229 calls)

     General routines
     calbec       :      3.04s CPU      2.55s WALL (     278 calls)
     fft          :      2.13s CPU      1.81s WALL (      88 calls)
     ffts         :      0.23s CPU      0.20s WALL (       7 calls)
     fftw         :     78.35s CPU     53.98s WALL (    5610 calls)

     Parallel routines

     PWSCF        :   1m58.30s CPU   1m23.53s WALL


   This run was terminated on:  11:25:37   1Aug2025            

=------------------------------------------------------------------------------=
   JOB DONE.
=------------------------------------------------------------------------------=
