
     Program PWSCF v.7.2 starts on 22Jul2025 at 15:55: 5 

     This program is part of the open-source Quantum ESPRESSO suite
     for quantum simulation of materials; please cite
         "P. Giannozzi et al., J. Phys.:Condens. Matter 21 395502 (2009);
         "P. Giannozzi et al., J. Phys.:Condens. Matter 29 465901 (2017);
         "P. Giannozzi et al., J. Chem. Phys. 152 154105 (2020);
          URL http://www.quantum-espresso.org", 
     in publications or presentations arising from this work. More details at
     http://www.quantum-espresso.org/quote

     Parallel version (MPI & OpenMP), running on       2 processor cores
     Number of MPI processes:                 1
     Threads/MPI process:                     2

     MPI processes distributed on     1 nodes
     358 MiB available memory on the printing compute node when the environment starts

     Reading input from ../vacuum/alpha_3.5.in

     Current dimensions of program PWSCF are:
     Max number of different atomic species (ntypx) = 10
     Max number of k-points (npk) =  40000
     Max angular momentum in pseudopotentials (lmaxx) =  4
     file B.pbesol-n-rrkjus_psl.1.0.0.UPF: wavefunction(s)  2S renormalized

     Subspace diagonalization in iterative solution of the eigenvalue problem:
     a serial algorithm will be used


     G-vector sticks info
     --------------------
     sticks:   dense  smooth     PW     G-vecs:    dense   smooth      PW
     Sum        1237    1237    349               124109   124109   18619

     Using Slab Decomposition



     bravais-lattice index     =            4
     lattice parameter (alat)  =       9.5000  a.u.
     unit-cell volume          =    2598.7799 (a.u.)^3
     number of atoms/cell      =            8
     number of atomic types    =            1
     number of electrons       =        24.00
     number of Kohn-Sham states=           16
     kinetic-energy cutoff     =      50.0000  Ry
     charge density cutoff     =     200.0000  Ry
     scf convergence threshold =      1.0E-06
     mixing beta               =       0.7000
     number of iterations used =            8  plain     mixing
     Exchange-correlation= PBESOL
                           (   1   4  10   8   0   0   0)

     celldm(1)=   9.500000  celldm(2)=   0.000000  celldm(3)=   3.500000
     celldm(4)=   0.000000  celldm(5)=   0.000000  celldm(6)=   0.000000

     crystal axes: (cart. coord. in units of alat)
               a(1) = (   1.000000   0.000000   0.000000 )  
               a(2) = (  -0.500000   0.866025   0.000000 )  
               a(3) = (   0.000000   0.000000   3.500000 )  

     reciprocal axes: (cart. coord. in units 2 pi/alat)
               b(1) = (  1.000000  0.577350 -0.000000 )  
               b(2) = (  0.000000  1.154701  0.000000 )  
               b(3) = (  0.000000 -0.000000  0.285714 )  


     PseudoPot. # 1 for B  read from file:
     ../../pseudo/B.pbesol-n-rrkjus_psl.1.0.0.UPF
     MD5 check sum: a3839a09b1a4e02f2a06a66adc9253fc
     Pseudo is Ultrasoft + core correction, Zval =  3.0
     Generated using &quot;atomic&quot; code by A. Dal Corso  v.6.3MaX
     Using radial grid of 1059 points,  4 beta functions with: 
                l(1) =   0
                l(2) =   0
                l(3) =   1
                l(4) =   1
     Q(r) pseudized with 0 coefficients 


     atomic species   valence    mass     pseudopotential
        B              3.00    10.81100     B ( 1.00)

     24 Sym. Ops., with inversion, found



   Cartesian axes

     site n.     atom                  positions (alat units)
         1           B   tau(   1) = (   0.3333330   0.0000000   0.0000000  )
         2           B   tau(   2) = (   0.6666670   0.0000000   0.0000000  )
         3           B   tau(   3) = (  -0.1666665   0.2886748   0.0000000  )
         4           B   tau(   4) = (   0.1666665   0.2886748   0.0000000  )
         5           B   tau(   5) = (   0.5000005   0.2886748   0.0000000  )
         6           B   tau(   6) = (  -0.3333335   0.5773506   0.0000000  )
         7           B   tau(   7) = (  -0.0000005   0.5773506   0.0000000  )
         8           B   tau(   8) = (   0.3333335   0.5773506   0.0000000  )

     number of k points=     7  Marzari-Vanderbilt smearing, width (Ry)=  0.0200
                       cart. coord. in units 2pi/alat
        k(    1) = (   0.0000000   0.0000000   0.0000000), wk =   0.0555556
        k(    2) = (   0.0000000   0.1924501   0.0000000), wk =   0.3333333
        k(    3) = (   0.0000000   0.3849002   0.0000000), wk =   0.3333333
        k(    4) = (   0.0000000  -0.5773503   0.0000000), wk =   0.1666667
        k(    5) = (   0.1666667   0.2886751   0.0000000), wk =   0.3333333
        k(    6) = (   0.1666667   0.4811252   0.0000000), wk =   0.6666667
        k(    7) = (   0.3333333   0.5773503   0.0000000), wk =   0.1111111

     Dense  grid:   124109 G-vectors     FFT dimensions: (  45,  45, 150)

     Estimated max dynamical RAM per process >     214.82 MB

     Check: negative core charge=   -0.000003

     Initial potential from superposition of free atoms

     starting charge      23.9977, renormalised to      24.0000

     negative rho (up, down):  1.970E-03 0.000E+00
     Starting wfcs are   32 randomized atomic wfcs

     total cpu time spent up to now is        4.3 secs

     per-process dynamical memory:   115.0 Mb

     Self-consistent Calculation

     iteration #  1     ecut=    50.00 Ry     beta= 0.70
     Davidson diagonalization with overlap
     ethr =  1.00E-02,  avg # of iterations =  2.0

     negative rho (up, down):  6.438E-03 0.000E+00

     total cpu time spent up to now is        1.5 secs

     total energy              =     -49.85302066 Ry
     estimated scf accuracy    <       0.74479871 Ry

     iteration #  2     ecut=    50.00 Ry     beta= 0.70
     Davidson diagonalization with overlap
     ethr =  3.10E-03,  avg # of iterations =  2.0

     negative rho (up, down):  8.665E-03 0.000E+00

     total cpu time spent up to now is        8.3 secs

     total energy              =     -49.97518812 Ry
     estimated scf accuracy    <       0.01912109 Ry

     iteration #  3     ecut=    50.00 Ry     beta= 0.70
     Davidson diagonalization with overlap
     ethr =  7.97E-05,  avg # of iterations =  3.6

     negative rho (up, down):  9.330E-03 0.000E+00

     total cpu time spent up to now is       16.1 secs

     total energy              =     -49.98008005 Ry
     estimated scf accuracy    <       0.00575368 Ry

     iteration #  4     ecut=    50.00 Ry     beta= 0.70
     Davidson diagonalization with overlap
     ethr =  2.40E-05,  avg # of iterations =  2.0

     negative rho (up, down):  1.003E-02 0.000E+00

     total cpu time spent up to now is       22.6 secs

     total energy              =     -49.98133059 Ry
     estimated scf accuracy    <       0.00018961 Ry

     iteration #  5     ecut=    50.00 Ry     beta= 0.70
     Davidson diagonalization with overlap
     ethr =  7.90E-07,  avg # of iterations =  6.9

     negative rho (up, down):  1.008E-02 0.000E+00

     total cpu time spent up to now is       22.2 secs

     total energy              =     -49.98135633 Ry
     estimated scf accuracy    <       0.00001955 Ry

     iteration #  6     ecut=    50.00 Ry     beta= 0.70
     Davidson diagonalization with overlap
     ethr =  8.15E-08,  avg # of iterations =  2.1

     negative rho (up, down):  1.009E-02 0.000E+00

     total cpu time spent up to now is       30.2 secs

     End of self-consistent calculation

          k = 0.0000 0.0000 0.0000 ( 15567 PWs)   bands (ev):

   -17.8347 -13.6920 -13.6110 -13.6110 -11.3254 -11.3254  -9.2250  -8.6920
    -3.6201  -3.6201  -2.1783  -1.6525  -1.6524  -1.3130  -1.3130  -0.9944

          k = 0.0000 0.1925 0.0000 ( 15557 PWs)   bands (ev):

   -17.7098 -14.7134 -13.7137 -12.7199 -11.4146 -11.0229  -8.7437  -8.4982
    -4.7509  -4.5769  -3.7420  -2.3778  -1.5933  -0.2103  -0.0589   0.1117

          k = 0.0000 0.3849 0.0000 ( 15496 PWs)   bands (ev):

   -17.3566 -15.6732 -13.8803 -12.5375 -10.8089 -10.3338  -8.2612  -7.9383
    -6.2548  -5.5294  -5.3704  -2.9688  -1.9466   1.4063   1.6563   1.7763

          k = 0.0000-0.5774 0.0000 ( 15496 PWs)   bands (ev):

   -17.0112 -16.2286 -13.9506 -12.6116 -10.1461  -9.8724  -8.5299  -7.3397
    -6.9958  -6.3359  -5.5838  -3.1694  -2.0934   1.9967   2.3955   2.7016

          k = 0.1667 0.2887 0.0000 ( 15511 PWs)   bands (ev):

   -17.4679 -15.4057 -14.0036 -12.1290 -11.4244 -10.4174  -8.3381  -8.1184
    -5.7978  -5.3914  -4.8416  -3.4514  -0.7857   0.1858   0.5803   1.7271

          k = 0.1667 0.4811 0.0000 ( 15525 PWs)   bands (ev):

   -17.0430 -16.1279 -14.2761 -11.9468 -10.7396  -9.7503  -8.8210  -7.4254
    -6.3668  -6.0435  -5.7468  -4.0577  -0.7145   1.4189   1.6270   2.2278

          k = 0.3333 0.5774 0.0000 ( 15531 PWs)   bands (ev):

   -16.5985 -16.5985 -14.5433 -11.0179 -11.0178  -9.5910  -9.4755  -6.7102
    -6.7101  -5.9662  -5.9662  -4.6568   1.0017   1.0017   1.5935   1.5935

     the Fermi energy is    -2.1284 ev

!    total energy              =     -49.98136139 Ry
     estimated scf accuracy    <       0.00000033 Ry
     smearing contrib. (-TS)   =      -0.00073669 Ry
     internal energy E=F+TS    =     -49.98062470 Ry

     The total energy is F=E-TS. E is the sum of the following terms:
     one-electron contribution =    -397.37443154 Ry
     hartree contribution      =     201.94998712 Ry
     xc contribution           =     -23.34443439 Ry
     ewald contribution        =     168.78825410 Ry

     convergence has been achieved in   6 iterations

     Writing all to output data dir ../../outdir/borophene.save/

     init_run     :      5.84s CPU      4.20s WALL (       1 calls)
     electrons    :     62.46s CPU     25.90s WALL (       1 calls)

     Called by init_run:
     wfcinit      :      4.72s CPU      3.16s WALL (       1 calls)
     potinit      :      0.18s CPU      0.16s WALL (       1 calls)
     hinit0       :      0.79s CPU      0.70s WALL (       1 calls)

     Called by electrons:
     c_bands      :     49.54s CPU     15.56s WALL (       6 calls)
     sum_band     :     11.31s CPU      9.00s WALL (       6 calls)
     v_of_rho     :      1.06s CPU      0.79s WALL (       7 calls)
     newd         :      0.55s CPU      0.60s WALL (       7 calls)
     mix_rho      :      0.15s CPU      0.14s WALL (       6 calls)

     Called by c_bands:
     init_us_2    :      0.56s CPU      0.47s WALL (      91 calls)
     init_us_2:cp :      0.56s CPU      0.47s WALL (      91 calls)
     cegterg      :     48.66s CPU     14.84s WALL (      42 calls)

     Called by *egterg:
     cdiaghg      :      0.10s CPU      0.07s WALL (     172 calls)
     h_psi        :     48.91s CPU     15.00s WALL (     179 calls)
     s_psi        :      1.08s CPU      0.62s WALL (     179 calls)
     g_psi        :      0.12s CPU      0.12s WALL (     130 calls)

     Called by h_psi:
     h_psi:calbec :      1.25s CPU      1.14s WALL (     179 calls)
     vloc_psi     :     46.50s CPU     13.13s WALL (     179 calls)
     add_vuspsi   :      1.01s CPU      0.58s WALL (     179 calls)

     General routines
     calbec       :      1.69s CPU      1.53s WALL (     221 calls)
     fft          :      0.96s CPU      0.85s WALL (      77 calls)
     ffts         :      0.08s CPU      0.07s WALL (       6 calls)
     fftw         :     47.93s CPU     25.51s WALL (    4816 calls)

     Parallel routines

     PWSCF        :   1m 8.43s CPU     30.31s WALL


   This run was terminated on:  15:55:35  22Jul2025            

=------------------------------------------------------------------------------=
   JOB DONE.
=------------------------------------------------------------------------------=
