
     Program PWSCF v.7.2 starts on 22Jul2025 at 15:55:35 

     This program is part of the open-source Quantum ESPRESSO suite
     for quantum simulation of materials; please cite
         "P. Giannozzi et al., J. Phys.:Condens. Matter 21 395502 (2009);
         "P. Giannozzi et al., J. Phys.:Condens. Matter 29 465901 (2017);
         "P. Giannozzi et al., J. Chem. Phys. 152 154105 (2020);
          URL http://www.quantum-espresso.org", 
     in publications or presentations arising from this work. More details at
     http://www.quantum-espresso.org/quote

     Parallel version (MPI & OpenMP), running on       2 processor cores
     Number of MPI processes:                 1
     Threads/MPI process:                     2

     MPI processes distributed on     1 nodes
     353 MiB available memory on the printing compute node when the environment starts

     Reading input from ../vacuum/alpha_4.0.in

     Current dimensions of program PWSCF are:
     Max number of different atomic species (ntypx) = 10
     Max number of k-points (npk) =  40000
     Max angular momentum in pseudopotentials (lmaxx) =  4
     file B.pbesol-n-rrkjus_psl.1.0.0.UPF: wavefunction(s)  2S renormalized

     Subspace diagonalization in iterative solution of the eigenvalue problem:
     a serial algorithm will be used


     G-vector sticks info
     --------------------
     sticks:   dense  smooth     PW     G-vecs:    dense   smooth      PW
     Sum        1237    1237    349               141699   141699   21295

     Using Slab Decomposition



     bravais-lattice index     =            4
     lattice parameter (alat)  =       9.5000  a.u.
     unit-cell volume          =    2970.0341 (a.u.)^3
     number of atoms/cell      =            8
     number of atomic types    =            1
     number of electrons       =        24.00
     number of Kohn-Sham states=           16
     kinetic-energy cutoff     =      50.0000  Ry
     charge density cutoff     =     200.0000  Ry
     scf convergence threshold =      1.0E-06
     mixing beta               =       0.7000
     number of iterations used =            8  plain     mixing
     Exchange-correlation= PBESOL
                           (   1   4  10   8   0   0   0)

     celldm(1)=   9.500000  celldm(2)=   0.000000  celldm(3)=   4.000000
     celldm(4)=   0.000000  celldm(5)=   0.000000  celldm(6)=   0.000000

     crystal axes: (cart. coord. in units of alat)
               a(1) = (   1.000000   0.000000   0.000000 )  
               a(2) = (  -0.500000   0.866025   0.000000 )  
               a(3) = (   0.000000   0.000000   4.000000 )  

     reciprocal axes: (cart. coord. in units 2 pi/alat)
               b(1) = (  1.000000  0.577350 -0.000000 )  
               b(2) = (  0.000000  1.154701  0.000000 )  
               b(3) = (  0.000000 -0.000000  0.250000 )  


     PseudoPot. # 1 for B  read from file:
     ../../pseudo/B.pbesol-n-rrkjus_psl.1.0.0.UPF
     MD5 check sum: a3839a09b1a4e02f2a06a66adc9253fc
     Pseudo is Ultrasoft + core correction, Zval =  3.0
     Generated using &quot;atomic&quot; code by A. Dal Corso  v.6.3MaX
     Using radial grid of 1059 points,  4 beta functions with: 
                l(1) =   0
                l(2) =   0
                l(3) =   1
                l(4) =   1
     Q(r) pseudized with 0 coefficients 


     atomic species   valence    mass     pseudopotential
        B              3.00    10.81100     B ( 1.00)

     24 Sym. Ops., with inversion, found



   Cartesian axes

     site n.     atom                  positions (alat units)
         1           B   tau(   1) = (   0.3333330   0.0000000   0.0000000  )
         2           B   tau(   2) = (   0.6666670   0.0000000   0.0000000  )
         3           B   tau(   3) = (  -0.1666665   0.2886748   0.0000000  )
         4           B   tau(   4) = (   0.1666665   0.2886748   0.0000000  )
         5           B   tau(   5) = (   0.5000005   0.2886748   0.0000000  )
         6           B   tau(   6) = (  -0.3333335   0.5773506   0.0000000  )
         7           B   tau(   7) = (  -0.0000005   0.5773506   0.0000000  )
         8           B   tau(   8) = (   0.3333335   0.5773506   0.0000000  )

     number of k points=     7  Marzari-Vanderbilt smearing, width (Ry)=  0.0200
                       cart. coord. in units 2pi/alat
        k(    1) = (   0.0000000   0.0000000   0.0000000), wk =   0.0555556
        k(    2) = (   0.0000000   0.1924501   0.0000000), wk =   0.3333333
        k(    3) = (   0.0000000   0.3849002   0.0000000), wk =   0.3333333
        k(    4) = (   0.0000000  -0.5773503   0.0000000), wk =   0.1666667
        k(    5) = (   0.1666667   0.2886751   0.0000000), wk =   0.3333333
        k(    6) = (   0.1666667   0.4811252   0.0000000), wk =   0.6666667
        k(    7) = (   0.3333333   0.5773503   0.0000000), wk =   0.1111111

     Dense  grid:   141699 G-vectors     FFT dimensions: (  45,  45, 180)

     Estimated max dynamical RAM per process >     246.49 MB

     Check: negative core charge=   -0.000002

     Initial potential from superposition of free atoms

     starting charge      23.9977, renormalised to      24.0000

     negative rho (up, down):  2.287E-03 0.000E+00
     Starting wfcs are   32 randomized atomic wfcs

     total cpu time spent up to now is        5.7 secs

     per-process dynamical memory:   131.5 Mb

     Self-consistent Calculation

     iteration #  1     ecut=    50.00 Ry     beta= 0.70
     Davidson diagonalization with overlap
     ethr =  1.00E-02,  avg # of iterations =  2.0

     negative rho (up, down):  7.291E-03 0.000E+00

     total cpu time spent up to now is       14.4 secs

     total energy              =     -49.85328151 Ry
     estimated scf accuracy    <       0.74426506 Ry

     iteration #  2     ecut=    50.00 Ry     beta= 0.70
     Davidson diagonalization with overlap
     ethr =  3.10E-03,  avg # of iterations =  2.0

     negative rho (up, down):  9.678E-03 0.000E+00

     total cpu time spent up to now is       22.5 secs

     total energy              =     -49.97518195 Ry
     estimated scf accuracy    <       0.01895337 Ry

     iteration #  3     ecut=    50.00 Ry     beta= 0.70
     Davidson diagonalization with overlap
     ethr =  7.90E-05,  avg # of iterations =  3.6

     negative rho (up, down):  1.038E-02 0.000E+00

     total cpu time spent up to now is       21.5 secs

     total energy              =     -49.98002187 Ry
     estimated scf accuracy    <       0.00571643 Ry

     iteration #  4     ecut=    50.00 Ry     beta= 0.70
     Davidson diagonalization with overlap
     ethr =  2.38E-05,  avg # of iterations =  2.0

     negative rho (up, down):  1.111E-02 0.000E+00

     total cpu time spent up to now is       30.5 secs

     total energy              =     -49.98126452 Ry
     estimated scf accuracy    <       0.00018939 Ry

     iteration #  5     ecut=    50.00 Ry     beta= 0.70
     Davidson diagonalization with overlap
     ethr =  7.89E-07,  avg # of iterations =  6.9

     negative rho (up, down):  1.117E-02 0.000E+00

     total cpu time spent up to now is       98.5 secs

     total energy              =     -49.98129001 Ry
     estimated scf accuracy    <       0.00001957 Ry

     iteration #  6     ecut=    50.00 Ry     beta= 0.70
     Davidson diagonalization with overlap
     ethr =  8.16E-08,  avg # of iterations =  2.6

     negative rho (up, down):  1.117E-02 0.000E+00

     total cpu time spent up to now is      106.4 secs

     End of self-consistent calculation

          k = 0.0000 0.0000 0.0000 ( 17785 PWs)   bands (ev):

   -18.1024 -13.9597 -13.8787 -13.8787 -11.5931 -11.5931  -9.4928  -8.9595
    -3.8878  -3.8878  -2.4459  -1.9201  -1.9201  -1.5808  -1.5808  -1.2620

          k = 0.0000 0.1925 0.0000 ( 17753 PWs)   bands (ev):

   -17.9775 -14.9811 -13.9814 -12.9875 -11.6823 -11.2906  -9.0114  -8.7657
    -5.0186  -4.8446  -4.0096  -2.6454  -1.8609  -0.4781  -0.3267  -0.1559

          k = 0.0000 0.3849 0.0000 ( 17696 PWs)   bands (ev):

   -17.6243 -15.9409 -14.1480 -12.8052 -11.0766 -10.6015  -8.5290  -8.2058
    -6.5226  -5.7971  -5.6380  -3.2364  -2.2142   1.1388   1.3993   1.5086

          k = 0.0000-0.5774 0.0000 ( 17664 PWs)   bands (ev):

   -17.2789 -16.4963 -14.2183 -12.8793 -10.4138 -10.1401  -8.7976  -7.6073
    -7.2635  -6.6035  -5.8516  -3.4370  -2.3610   1.7291   2.1296   2.4411

          k = 0.1667 0.2887 0.0000 ( 17685 PWs)   bands (ev):

   -17.7357 -15.6734 -14.2713 -12.3967 -11.6921 -10.6851  -8.6059  -8.3859
    -6.0655  -5.6591  -5.1092  -3.7190  -1.0533  -0.0819   0.3125   1.4593

          k = 0.1667 0.4811 0.0000 ( 17741 PWs)   bands (ev):

   -17.3107 -16.3956 -14.5439 -12.2145 -11.0073 -10.0180  -9.0888  -7.6929
    -6.6345  -6.3111  -6.0145  -4.3253  -0.9821   1.1512   1.3594   1.9620

          k = 0.3333 0.5774 0.0000 ( 17715 PWs)   bands (ev):

   -16.8662 -16.8662 -14.8110 -11.2855 -11.2855  -9.8587  -9.7432  -6.9777
    -6.9777  -6.2339  -6.2339  -4.9244   0.7340   0.7341   1.3258   1.3258

     the Fermi energy is    -2.3960 ev

!    total energy              =     -49.98129511 Ry
     estimated scf accuracy    <       0.00000033 Ry
     smearing contrib. (-TS)   =      -0.00073679 Ry
     internal energy E=F+TS    =     -49.98055832 Ry

     The total energy is F=E-TS. E is the sum of the following terms:
     one-electron contribution =    -470.21771768 Ry
     hartree contribution      =     238.13540233 Ry
     xc contribution           =     -23.34433685 Ry
     ewald contribution        =     205.44609388 Ry

     convergence has been achieved in   6 iterations

     Writing all to output data dir ../../outdir/borophene.save/

     init_run     :      7.00s CPU      5.65s WALL (       1 calls)
     electrons    :     75.36s CPU    100.70s WALL (       1 calls)

     Called by init_run:
     wfcinit      :      5.56s CPU      4.27s WALL (       1 calls)
     potinit      :      0.21s CPU      0.17s WALL (       1 calls)
     hinit0       :      1.08s CPU      1.01s WALL (       1 calls)

     Called by electrons:
     c_bands      :     61.01s CPU     89.14s WALL (       6 calls)
     sum_band     :     12.51s CPU      9.86s WALL (       6 calls)
     v_of_rho     :      1.33s CPU      0.96s WALL (       7 calls)
     newd         :      0.56s CPU      0.78s WALL (       7 calls)
     mix_rho      :      0.16s CPU      0.15s WALL (       6 calls)

     Called by c_bands:
     init_us_2    :      0.60s CPU      0.56s WALL (      91 calls)
     init_us_2:cp :      0.60s CPU      0.56s WALL (      91 calls)
     cegterg      :     59.94s CPU     33.69s WALL (      42 calls)

     Called by *egterg:
     cdiaghg      :      0.09s CPU      0.07s WALL (     175 calls)
     h_psi        :     60.31s CPU     34.08s WALL (     182 calls)
     s_psi        :      1.25s CPU      0.82s WALL (     182 calls)
     g_psi        :      0.15s CPU      0.15s WALL (     133 calls)

     Called by h_psi:
     h_psi:calbec :      1.48s CPU      1.44s WALL (     182 calls)
     vloc_psi     :     57.44s CPU     31.70s WALL (     182 calls)
     add_vuspsi   :      1.21s CPU      0.75s WALL (     182 calls)

     General routines
     calbec       :      1.91s CPU      1.85s WALL (     224 calls)
     fft          :      1.38s CPU      1.21s WALL (      77 calls)
     ffts         :      0.07s CPU      0.05s WALL (       6 calls)
     fftw         :     57.55s CPU     32.32s WALL (    4816 calls)

     Parallel routines

     PWSCF        :   1m22.47s CPU   1m46.54s WALL


   This run was terminated on:  15:57:22  22Jul2025            

=------------------------------------------------------------------------------=
   JOB DONE.
=------------------------------------------------------------------------------=
