
     Program PWSCF v.7.2 starts on 22Jul2025 at 15:54:24 

     This program is part of the open-source Quantum ESPRESSO suite
     for quantum simulation of materials; please cite
         "P. Giannozzi et al., J. Phys.:Condens. Matter 21 395502 (2009);
         "P. Giannozzi et al., J. Phys.:Condens. Matter 29 465901 (2017);
         "P. Giannozzi et al., J. Chem. Phys. 152 154105 (2020);
          URL http://www.quantum-espresso.org", 
     in publications or presentations arising from this work. More details at
     http://www.quantum-espresso.org/quote

     Parallel version (MPI & OpenMP), running on       2 processor cores
     Number of MPI processes:                 1
     Threads/MPI process:                     2

     MPI processes distributed on     1 nodes
     372 MiB available memory on the printing compute node when the environment starts

     Reading input from ../vacuum/alpha_3.0.in

     Current dimensions of program PWSCF are:
     Max number of different atomic species (ntypx) = 10
     Max number of k-points (npk) =  40000
     Max angular momentum in pseudopotentials (lmaxx) =  4
     file B.pbesol-n-rrkjus_psl.1.0.0.UPF: wavefunction(s)  2S renormalized

     Subspace diagonalization in iterative solution of the eigenvalue problem:
     a serial algorithm will be used


     G-vector sticks info
     --------------------
     sticks:   dense  smooth     PW     G-vecs:    dense   smooth      PW
     Sum        1237    1237    349               106137   106137   15921

     Using Slab Decomposition



     bravais-lattice index     =            4
     lattice parameter (alat)  =       9.5000  a.u.
     unit-cell volume          =    2227.5256 (a.u.)^3
     number of atoms/cell      =            8
     number of atomic types    =            1
     number of electrons       =        24.00
     number of Kohn-Sham states=           16
     kinetic-energy cutoff     =      50.0000  Ry
     charge density cutoff     =     200.0000  Ry
     scf convergence threshold =      1.0E-06
     mixing beta               =       0.7000
     number of iterations used =            8  plain     mixing
     Exchange-correlation= PBESOL
                           (   1   4  10   8   0   0   0)

     celldm(1)=   9.500000  celldm(2)=   0.000000  celldm(3)=   3.000000
     celldm(4)=   0.000000  celldm(5)=   0.000000  celldm(6)=   0.000000

     crystal axes: (cart. coord. in units of alat)
               a(1) = (   1.000000   0.000000   0.000000 )  
               a(2) = (  -0.500000   0.866025   0.000000 )  
               a(3) = (   0.000000   0.000000   3.000000 )  

     reciprocal axes: (cart. coord. in units 2 pi/alat)
               b(1) = (  1.000000  0.577350 -0.000000 )  
               b(2) = (  0.000000  1.154701  0.000000 )  
               b(3) = (  0.000000 -0.000000  0.333333 )  


     PseudoPot. # 1 for B  read from file:
     ../../pseudo/B.pbesol-n-rrkjus_psl.1.0.0.UPF
     MD5 check sum: a3839a09b1a4e02f2a06a66adc9253fc
     Pseudo is Ultrasoft + core correction, Zval =  3.0
     Generated using &quot;atomic&quot; code by A. Dal Corso  v.6.3MaX
     Using radial grid of 1059 points,  4 beta functions with: 
                l(1) =   0
                l(2) =   0
                l(3) =   1
                l(4) =   1
     Q(r) pseudized with 0 coefficients 


     atomic species   valence    mass     pseudopotential
        B              3.00    10.81100     B ( 1.00)

     24 Sym. Ops., with inversion, found



   Cartesian axes

     site n.     atom                  positions (alat units)
         1           B   tau(   1) = (   0.3333330   0.0000000   0.0000000  )
         2           B   tau(   2) = (   0.6666670   0.0000000   0.0000000  )
         3           B   tau(   3) = (  -0.1666665   0.2886748   0.0000000  )
         4           B   tau(   4) = (   0.1666665   0.2886748   0.0000000  )
         5           B   tau(   5) = (   0.5000005   0.2886748   0.0000000  )
         6           B   tau(   6) = (  -0.3333335   0.5773506   0.0000000  )
         7           B   tau(   7) = (  -0.0000005   0.5773506   0.0000000  )
         8           B   tau(   8) = (   0.3333335   0.5773506   0.0000000  )

     number of k points=     7  Marzari-Vanderbilt smearing, width (Ry)=  0.0200
                       cart. coord. in units 2pi/alat
        k(    1) = (   0.0000000   0.0000000   0.0000000), wk =   0.0555556
        k(    2) = (   0.0000000   0.1924501   0.0000000), wk =   0.3333333
        k(    3) = (   0.0000000   0.3849002   0.0000000), wk =   0.3333333
        k(    4) = (   0.0000000  -0.5773503   0.0000000), wk =   0.1666667
        k(    5) = (   0.1666667   0.2886751   0.0000000), wk =   0.3333333
        k(    6) = (   0.1666667   0.4811252   0.0000000), wk =   0.6666667
        k(    7) = (   0.3333333   0.5773503   0.0000000), wk =   0.1111111

     Dense  grid:   106137 G-vectors     FFT dimensions: (  45,  45, 135)

     Estimated max dynamical RAM per process >     184.79 MB

     Check: negative core charge=   -0.000003

     Initial potential from superposition of free atoms

     starting charge      23.9977, renormalised to      24.0000

     negative rho (up, down):  1.527E-03 0.000E+00
     Starting wfcs are   32 randomized atomic wfcs

     total cpu time spent up to now is        4.6 secs

     per-process dynamical memory:    99.7 Mb

     Self-consistent Calculation

     iteration #  1     ecut=    50.00 Ry     beta= 0.70
     Davidson diagonalization with overlap
     ethr =  1.00E-02,  avg # of iterations =  2.0

     negative rho (up, down):  5.387E-03 0.000E+00

     total cpu time spent up to now is       13.5 secs

     total energy              =     -49.85271832 Ry
     estimated scf accuracy    <       0.74518488 Ry

     iteration #  2     ecut=    50.00 Ry     beta= 0.70
     Davidson diagonalization with overlap
     ethr =  3.10E-03,  avg # of iterations =  2.0

     negative rho (up, down):  7.366E-03 0.000E+00

     total cpu time spent up to now is       21.8 secs

     total energy              =     -49.97509693 Ry
     estimated scf accuracy    <       0.01925855 Ry

     iteration #  3     ecut=    50.00 Ry     beta= 0.70
     Davidson diagonalization with overlap
     ethr =  8.02E-05,  avg # of iterations =  3.6

     negative rho (up, down):  7.954E-03 0.000E+00

     total cpu time spent up to now is       18.9 secs

     total energy              =     -49.98002063 Ry
     estimated scf accuracy    <       0.00580442 Ry

     iteration #  4     ecut=    50.00 Ry     beta= 0.70
     Davidson diagonalization with overlap
     ethr =  2.42E-05,  avg # of iterations =  2.0

     negative rho (up, down):  8.569E-03 0.000E+00

     total cpu time spent up to now is       25.2 secs

     total energy              =     -49.98128170 Ry
     estimated scf accuracy    <       0.00019081 Ry

     iteration #  5     ecut=    50.00 Ry     beta= 0.70
     Davidson diagonalization with overlap
     ethr =  7.95E-07,  avg # of iterations =  6.0

     negative rho (up, down):  8.618E-03 0.000E+00

     total cpu time spent up to now is       34.5 secs

     total energy              =     -49.98130742 Ry
     estimated scf accuracy    <       0.00001910 Ry

     iteration #  6     ecut=    50.00 Ry     beta= 0.70
     Davidson diagonalization with overlap
     ethr =  7.96E-08,  avg # of iterations =  2.1

     negative rho (up, down):  8.621E-03 0.000E+00

     total cpu time spent up to now is       41.0 secs

     End of self-consistent calculation

          k = 0.0000 0.0000 0.0000 ( 13301 PWs)   bands (ev):

   -17.4780 -13.3353 -13.2543 -13.2543 -10.9688 -10.9687  -8.8684  -8.3352
    -3.2635  -3.2635  -1.8215  -1.2958  -1.2957  -0.9564  -0.9564  -0.6377

          k = 0.0000 0.1925 0.0000 ( 13315 PWs)   bands (ev):

   -17.3531 -14.3567 -13.3570 -12.3631 -11.0580 -10.6662  -8.3870  -8.1414
    -4.3943  -4.2203  -3.3853  -2.0211  -1.2366   0.1463   0.2977   0.4684

          k = 0.0000 0.3849 0.0000 ( 13304 PWs)   bands (ev):

   -16.9999 -15.3165 -13.5235 -12.1808 -10.4522  -9.9771  -7.9046  -7.5815
    -5.8982  -5.1728  -5.0137  -2.6121  -1.5899   1.7617   1.9856   2.1329

          k = 0.0000-0.5774 0.0000 ( 13272 PWs)   bands (ev):

   -16.6545 -15.8719 -13.5939 -12.2549  -9.7894  -9.5157  -8.1732  -6.9829
    -6.6392  -5.9792  -5.2272  -2.8127  -1.7368   2.3532   2.7465   3.0418

          k = 0.1667 0.2887 0.0000 ( 13279 PWs)   bands (ev):

   -17.1113 -15.0490 -13.6469 -11.7723 -11.0677 -10.0607  -7.9815  -7.7616
    -5.4412  -5.0347  -4.4849  -3.0947  -0.4290   0.5424   0.9369   2.0837

          k = 0.1667 0.4811 0.0000 ( 13311 PWs)   bands (ev):

   -16.6863 -15.7712 -13.9195 -11.5901 -10.3829  -9.3936  -8.4644  -7.0686
    -6.0102  -5.6868  -5.3902  -3.7010  -0.3578   1.7754   1.9837   2.5754

          k = 0.3333 0.5774 0.0000 ( 13305 PWs)   bands (ev):

   -16.2418 -16.2418 -14.1866 -10.6612 -10.6611  -9.2344  -9.1188  -6.3534
    -6.3534  -5.6096  -5.6096  -4.3001   1.3584   1.3584   1.9501   1.9501

     the Fermi energy is    -1.7717 ev

!    total energy              =     -49.98131234 Ry
     estimated scf accuracy    <       0.00000030 Ry
     smearing contrib. (-TS)   =      -0.00073717 Ry
     internal energy E=F+TS    =     -49.98057518 Ry

     The total energy is F=E-TS. E is the sum of the following terms:
     one-electron contribution =    -324.68786159 Ry
     hartree contribution      =     165.92116781 Ry
     xc contribution           =     -23.34429572 Ry
     ewald contribution        =     132.13041432 Ry

     convergence has been achieved in   6 iterations

     Writing all to output data dir ../../outdir/borophene.save/

     init_run     :      7.26s CPU      4.58s WALL (       1 calls)
     electrons    :     69.06s CPU     36.33s WALL (       1 calls)

     Called by init_run:
     wfcinit      :      6.18s CPU      3.67s WALL (       1 calls)
     potinit      :      0.21s CPU      0.14s WALL (       1 calls)
     hinit0       :      0.73s CPU      0.59s WALL (       1 calls)

     Called by electrons:
     c_bands      :     55.76s CPU     38.29s WALL (       6 calls)
     sum_band     :     11.80s CPU      8.73s WALL (       6 calls)
     v_of_rho     :      1.20s CPU      0.83s WALL (       7 calls)
     newd         :      0.41s CPU      0.57s WALL (       7 calls)
     mix_rho      :      0.11s CPU    -11.90s WALL (       6 calls)

     Called by c_bands:
     init_us_2    :      0.55s CPU      0.46s WALL (      91 calls)
     init_us_2:cp :      0.55s CPU      0.46s WALL (      91 calls)
     cegterg      :     54.78s CPU     37.50s WALL (      42 calls)

     Called by *egterg:
     cdiaghg      :      0.10s CPU      0.06s WALL (     166 calls)
     h_psi        :     55.48s CPU     37.55s WALL (     173 calls)
     s_psi        :      1.36s CPU      0.81s WALL (     173 calls)
     g_psi        :      0.15s CPU      0.16s WALL (     124 calls)

     Called by h_psi:
     h_psi:calbec :      1.75s CPU      1.36s WALL (     173 calls)
     vloc_psi     :     52.21s CPU     35.25s WALL (     173 calls)
     add_vuspsi   :      1.29s CPU      0.72s WALL (     173 calls)

     General routines
     calbec       :      2.26s CPU      1.75s WALL (     215 calls)
     fft          :      1.00s CPU      0.81s WALL (      77 calls)
     ffts         :      0.04s CPU      0.03s WALL (       6 calls)
     fftw         :     52.65s CPU     37.24s WALL (    4816 calls)

     Parallel routines

     PWSCF        :   1m16.40s CPU     41.06s WALL


   This run was terminated on:  15:55: 5  22Jul2025            

=------------------------------------------------------------------------------=
   JOB DONE.
=------------------------------------------------------------------------------=
