
     Program PWSCF v.7.2 starts on 22Jul2025 at 15:51:58 

     This program is part of the open-source Quantum ESPRESSO suite
     for quantum simulation of materials; please cite
         "P. Giannozzi et al., J. Phys.:Condens. Matter 21 395502 (2009);
         "P. Giannozzi et al., J. Phys.:Condens. Matter 29 465901 (2017);
         "P. Giannozzi et al., J. Chem. Phys. 152 154105 (2020);
          URL http://www.quantum-espresso.org", 
     in publications or presentations arising from this work. More details at
     http://www.quantum-espresso.org/quote

     Parallel version (MPI & OpenMP), running on       2 processor cores
     Number of MPI processes:                 1
     Threads/MPI process:                     2

     MPI processes distributed on     1 nodes
     393 MiB available memory on the printing compute node when the environment starts

     Reading input from ../vacuum/alpha_1.5.in

     Current dimensions of program PWSCF are:
     Max number of different atomic species (ntypx) = 10
     Max number of k-points (npk) =  40000
     Max angular momentum in pseudopotentials (lmaxx) =  4
     file B.pbesol-n-rrkjus_psl.1.0.0.UPF: wavefunction(s)  2S renormalized

     Subspace diagonalization in iterative solution of the eigenvalue problem:
     a serial algorithm will be used


     G-vector sticks info
     --------------------
     sticks:   dense  smooth     PW     G-vecs:    dense   smooth      PW
     Sum        1237    1237    349                53117    53117    8003

     Using Slab Decomposition



     bravais-lattice index     =            4
     lattice parameter (alat)  =       9.5000  a.u.
     unit-cell volume          =    1113.7628 (a.u.)^3
     number of atoms/cell      =            8
     number of atomic types    =            1
     number of electrons       =        24.00
     number of Kohn-Sham states=           16
     kinetic-energy cutoff     =      50.0000  Ry
     charge density cutoff     =     200.0000  Ry
     scf convergence threshold =      1.0E-06
     mixing beta               =       0.7000
     number of iterations used =            8  plain     mixing
     Exchange-correlation= PBESOL
                           (   1   4  10   8   0   0   0)

     celldm(1)=   9.500000  celldm(2)=   0.000000  celldm(3)=   1.500000
     celldm(4)=   0.000000  celldm(5)=   0.000000  celldm(6)=   0.000000

     crystal axes: (cart. coord. in units of alat)
               a(1) = (   1.000000   0.000000   0.000000 )  
               a(2) = (  -0.500000   0.866025   0.000000 )  
               a(3) = (   0.000000   0.000000   1.500000 )  

     reciprocal axes: (cart. coord. in units 2 pi/alat)
               b(1) = (  1.000000  0.577350 -0.000000 )  
               b(2) = (  0.000000  1.154701  0.000000 )  
               b(3) = (  0.000000 -0.000000  0.666667 )  


     PseudoPot. # 1 for B  read from file:
     ../../pseudo/B.pbesol-n-rrkjus_psl.1.0.0.UPF
     MD5 check sum: a3839a09b1a4e02f2a06a66adc9253fc
     Pseudo is Ultrasoft + core correction, Zval =  3.0
     Generated using &quot;atomic&quot; code by A. Dal Corso  v.6.3MaX
     Using radial grid of 1059 points,  4 beta functions with: 
                l(1) =   0
                l(2) =   0
                l(3) =   1
                l(4) =   1
     Q(r) pseudized with 0 coefficients 


     atomic species   valence    mass     pseudopotential
        B              3.00    10.81100     B ( 1.00)

     24 Sym. Ops., with inversion, found



   Cartesian axes

     site n.     atom                  positions (alat units)
         1           B   tau(   1) = (   0.3333330   0.0000000   0.0000000  )
         2           B   tau(   2) = (   0.6666670   0.0000000   0.0000000  )
         3           B   tau(   3) = (  -0.1666665   0.2886748   0.0000000  )
         4           B   tau(   4) = (   0.1666665   0.2886748   0.0000000  )
         5           B   tau(   5) = (   0.5000005   0.2886748   0.0000000  )
         6           B   tau(   6) = (  -0.3333335   0.5773506   0.0000000  )
         7           B   tau(   7) = (  -0.0000005   0.5773506   0.0000000  )
         8           B   tau(   8) = (   0.3333335   0.5773506   0.0000000  )

     number of k points=     7  Marzari-Vanderbilt smearing, width (Ry)=  0.0200
                       cart. coord. in units 2pi/alat
        k(    1) = (   0.0000000   0.0000000   0.0000000), wk =   0.0555556
        k(    2) = (   0.0000000   0.1924501   0.0000000), wk =   0.3333333
        k(    3) = (   0.0000000   0.3849002   0.0000000), wk =   0.3333333
        k(    4) = (   0.0000000  -0.5773503   0.0000000), wk =   0.1666667
        k(    5) = (   0.1666667   0.2886751   0.0000000), wk =   0.3333333
        k(    6) = (   0.1666667   0.4811252   0.0000000), wk =   0.6666667
        k(    7) = (   0.3333333   0.5773503   0.0000000), wk =   0.1111111

     Dense  grid:    53117 G-vectors     FFT dimensions: (  45,  45,  72)

     Estimated max dynamical RAM per process >      93.24 MB

     Check: negative core charge=   -0.000005

     Initial potential from superposition of free atoms

     starting charge      23.9977, renormalised to      24.0000
     Starting wfcs are   32 randomized atomic wfcs

     total cpu time spent up to now is        2.5 secs

     per-process dynamical memory:    56.4 Mb

     Self-consistent Calculation

     iteration #  1     ecut=    50.00 Ry     beta= 0.70
     Davidson diagonalization with overlap
     ethr =  1.00E-02,  avg # of iterations =  2.3

     negative rho (up, down):  3.022E-04 0.000E+00

     total cpu time spent up to now is        7.8 secs

     total energy              =     -49.84967493 Ry
     estimated scf accuracy    <       0.74959622 Ry

     iteration #  2     ecut=    50.00 Ry     beta= 0.70
     Davidson diagonalization with overlap
     ethr =  3.12E-03,  avg # of iterations =  2.0

     negative rho (up, down):  1.139E-03 0.000E+00

     total cpu time spent up to now is       13.1 secs

     total energy              =     -49.97378020 Ry
     estimated scf accuracy    <       0.02043898 Ry

     iteration #  3     ecut=    50.00 Ry     beta= 0.70
     Davidson diagonalization with overlap
     ethr =  8.52E-05,  avg # of iterations =  3.7

     negative rho (up, down):  1.518E-03 0.000E+00

     total cpu time spent up to now is       18.6 secs

     total energy              =     -49.97900487 Ry
     estimated scf accuracy    <       0.00618942 Ry

     iteration #  4     ecut=    50.00 Ry     beta= 0.70
     Davidson diagonalization with overlap
     ethr =  2.58E-05,  avg # of iterations =  2.0

     negative rho (up, down):  1.952E-03 0.000E+00

     total cpu time spent up to now is       23.4 secs

     total energy              =     -49.98034993 Ry
     estimated scf accuracy    <       0.00019755 Ry

     iteration #  5     ecut=    50.00 Ry     beta= 0.70
     Davidson diagonalization with overlap
     ethr =  8.23E-07,  avg # of iterations =  8.1

     negative rho (up, down):  1.987E-03 0.000E+00

     total cpu time spent up to now is       31.8 secs

     total energy              =     -49.98037559 Ry
     estimated scf accuracy    <       0.00001870 Ry

     iteration #  6     ecut=    50.00 Ry     beta= 0.70
     Davidson diagonalization with overlap
     ethr =  7.79E-08,  avg # of iterations =  2.1

     negative rho (up, down):  1.986E-03 0.000E+00

     total cpu time spent up to now is       25.2 secs

     End of self-consistent calculation

          k = 0.0000 0.0000 0.0000 (  6705 PWs)   bands (ev):

   -14.9628 -10.8200 -10.7387 -10.7387  -8.4536  -8.4535  -6.3537  -5.8196
    -0.7476  -0.7476   0.6932   1.2195   1.2196   1.5586   1.5586   1.8777

          k = 0.0000 0.1925 0.0000 (  6661 PWs)   bands (ev):

   -14.8379 -11.8412 -10.8415  -9.8477  -8.5428  -8.1510  -5.8721  -5.6259
    -1.8786  -1.7047  -0.8701   0.4942   1.2798   2.6611   2.8128   2.9836

          k = 0.0000 0.3849 0.0000 (  6624 PWs)   bands (ev):

   -14.4847 -12.8011 -11.0080  -9.6656  -7.9368  -7.4617  -5.3894  -5.0660
    -3.3827  -2.6575  -2.4982  -0.0967   0.9275   4.1602   4.3208   4.6476

          k = 0.0000-0.5774 0.0000 (  6628 PWs)   bands (ev):

   -14.1391 -13.3566 -11.0784  -9.7399  -7.2738  -7.0002  -5.6579  -4.4677
    -4.1238  -3.4635  -2.7120  -0.2973   0.7808   4.8550   5.0572   5.3666

          k = 0.1667 0.2887 0.0000 (  6629 PWs)   bands (ev):

   -14.5960 -12.5336 -11.1315  -9.2569  -8.5526  -7.5453  -5.4664  -5.2461
    -2.9258  -2.5192  -1.9697  -0.5785   2.0862   3.0628   3.4494   3.9864

          k = 0.1667 0.4811 0.0000 (  6655 PWs)   bands (ev):

   -14.1710 -13.2558 -11.4041  -9.0748  -7.8675  -6.8780  -5.9491  -4.5532
    -3.4948  -3.1714  -2.8749  -1.1846   2.1587   4.2837   4.5034   4.8202

          k = 0.3333 0.5774 0.0000 (  6681 PWs)   bands (ev):

   -13.7265 -13.7264 -11.6714  -8.1457  -8.1457  -6.7192  -6.6032  -3.8381
    -3.8381  -3.0942  -3.0942  -1.7833   3.8737   3.8737   4.4619   4.4619

     the Fermi energy is     0.7447 ev

!    total energy              =     -49.98038060 Ry
     estimated scf accuracy    <       0.00000052 Ry
     smearing contrib. (-TS)   =      -0.00072220 Ry
     internal energy E=F+TS    =     -49.97965840 Ry

     The total energy is F=E-TS. E is the sum of the following terms:
     one-electron contribution =    -109.17444959 Ry
     hartree contribution      =      60.38467923 Ry
     xc contribution           =     -23.34699653 Ry
     ewald contribution        =      22.15710850 Ry

     convergence has been achieved in   6 iterations

     Writing all to output data dir ../../outdir/borophene.save/

     init_run     :      3.17s CPU      2.40s WALL (       1 calls)
     electrons    :     41.43s CPU     22.75s WALL (       1 calls)

     Called by init_run:
     wfcinit      :      2.43s CPU      1.72s WALL (       1 calls)
     potinit      :      0.08s CPU      0.06s WALL (       1 calls)
     hinit0       :      0.59s CPU      0.55s WALL (       1 calls)

     Called by electrons:
     c_bands      :     32.38s CPU     15.12s WALL (       6 calls)
     sum_band     :      7.96s CPU      6.63s WALL (       6 calls)
     v_of_rho     :      0.86s CPU      0.71s WALL (       7 calls)
     newd         :      0.20s CPU      0.22s WALL (       7 calls)
     mix_rho      :      0.13s CPU      0.13s WALL (       6 calls)

     Called by c_bands:
     init_us_2    :      0.26s CPU      0.21s WALL (      91 calls)
     init_us_2:cp :      0.26s CPU      0.21s WALL (      91 calls)
     cegterg      :     31.94s CPU     14.72s WALL (      42 calls)

     Called by *egterg:
     cdiaghg      :      0.10s CPU      0.07s WALL (     184 calls)
     h_psi        :     32.08s CPU     14.68s WALL (     191 calls)
     s_psi        :      0.51s CPU      0.35s WALL (     191 calls)
     g_psi        :      0.11s CPU      0.10s WALL (     142 calls)

     Called by h_psi:
     h_psi:calbec :      0.85s CPU      0.69s WALL (     191 calls)
     vloc_psi     :     30.66s CPU     13.56s WALL (     191 calls)
     add_vuspsi   :      0.45s CPU      0.30s WALL (     191 calls)

     General routines
     calbec       :      1.09s CPU      0.87s WALL (     233 calls)
     fft          :      1.07s CPU      0.99s WALL (      77 calls)
     ffts         :      0.12s CPU      0.11s WALL (       6 calls)
     fftw         :     35.36s CPU     17.85s WALL (    4856 calls)

     Parallel routines

     PWSCF        :     44.68s CPU     25.26s WALL


   This run was terminated on:  15:52:24  22Jul2025            

=------------------------------------------------------------------------------=
   JOB DONE.
=------------------------------------------------------------------------------=
