
     Program PWSCF v.7.2 starts on 22Jul2025 at 15:53:47 

     This program is part of the open-source Quantum ESPRESSO suite
     for quantum simulation of materials; please cite
         "P. Giannozzi et al., J. Phys.:Condens. Matter 21 395502 (2009);
         "P. Giannozzi et al., J. Phys.:Condens. Matter 29 465901 (2017);
         "P. Giannozzi et al., J. Chem. Phys. 152 154105 (2020);
          URL http://www.quantum-espresso.org", 
     in publications or presentations arising from this work. More details at
     http://www.quantum-espresso.org/quote

     Parallel version (MPI & OpenMP), running on       2 processor cores
     Number of MPI processes:                 1
     Threads/MPI process:                     2

     MPI processes distributed on     1 nodes
     375 MiB available memory on the printing compute node when the environment starts

     Reading input from ../vacuum/alpha_2.5.in

     Current dimensions of program PWSCF are:
     Max number of different atomic species (ntypx) = 10
     Max number of k-points (npk) =  40000
     Max angular momentum in pseudopotentials (lmaxx) =  4
     file B.pbesol-n-rrkjus_psl.1.0.0.UPF: wavefunction(s)  2S renormalized

     Subspace diagonalization in iterative solution of the eigenvalue problem:
     a serial algorithm will be used


     G-vector sticks info
     --------------------
     sticks:   dense  smooth     PW     G-vecs:    dense   smooth      PW
     Sum        1237    1237    349                88559    88559   13305

     Using Slab Decomposition



     bravais-lattice index     =            4
     lattice parameter (alat)  =       9.5000  a.u.
     unit-cell volume          =    1856.2713 (a.u.)^3
     number of atoms/cell      =            8
     number of atomic types    =            1
     number of electrons       =        24.00
     number of Kohn-Sham states=           16
     kinetic-energy cutoff     =      50.0000  Ry
     charge density cutoff     =     200.0000  Ry
     scf convergence threshold =      1.0E-06
     mixing beta               =       0.7000
     number of iterations used =            8  plain     mixing
     Exchange-correlation= PBESOL
                           (   1   4  10   8   0   0   0)

     celldm(1)=   9.500000  celldm(2)=   0.000000  celldm(3)=   2.500000
     celldm(4)=   0.000000  celldm(5)=   0.000000  celldm(6)=   0.000000

     crystal axes: (cart. coord. in units of alat)
               a(1) = (   1.000000   0.000000   0.000000 )  
               a(2) = (  -0.500000   0.866025   0.000000 )  
               a(3) = (   0.000000   0.000000   2.500000 )  

     reciprocal axes: (cart. coord. in units 2 pi/alat)
               b(1) = (  1.000000  0.577350 -0.000000 )  
               b(2) = (  0.000000  1.154701  0.000000 )  
               b(3) = (  0.000000 -0.000000  0.400000 )  


     PseudoPot. # 1 for B  read from file:
     ../../pseudo/B.pbesol-n-rrkjus_psl.1.0.0.UPF
     MD5 check sum: a3839a09b1a4e02f2a06a66adc9253fc
     Pseudo is Ultrasoft + core correction, Zval =  3.0
     Generated using &quot;atomic&quot; code by A. Dal Corso  v.6.3MaX
     Using radial grid of 1059 points,  4 beta functions with: 
                l(1) =   0
                l(2) =   0
                l(3) =   1
                l(4) =   1
     Q(r) pseudized with 0 coefficients 


     atomic species   valence    mass     pseudopotential
        B              3.00    10.81100     B ( 1.00)

     24 Sym. Ops., with inversion, found



   Cartesian axes

     site n.     atom                  positions (alat units)
         1           B   tau(   1) = (   0.3333330   0.0000000   0.0000000  )
         2           B   tau(   2) = (   0.6666670   0.0000000   0.0000000  )
         3           B   tau(   3) = (  -0.1666665   0.2886748   0.0000000  )
         4           B   tau(   4) = (   0.1666665   0.2886748   0.0000000  )
         5           B   tau(   5) = (   0.5000005   0.2886748   0.0000000  )
         6           B   tau(   6) = (  -0.3333335   0.5773506   0.0000000  )
         7           B   tau(   7) = (  -0.0000005   0.5773506   0.0000000  )
         8           B   tau(   8) = (   0.3333335   0.5773506   0.0000000  )

     number of k points=     7  Marzari-Vanderbilt smearing, width (Ry)=  0.0200
                       cart. coord. in units 2pi/alat
        k(    1) = (   0.0000000   0.0000000   0.0000000), wk =   0.0555556
        k(    2) = (   0.0000000   0.1924501   0.0000000), wk =   0.3333333
        k(    3) = (   0.0000000   0.3849002   0.0000000), wk =   0.3333333
        k(    4) = (   0.0000000  -0.5773503   0.0000000), wk =   0.1666667
        k(    5) = (   0.1666667   0.2886751   0.0000000), wk =   0.3333333
        k(    6) = (   0.1666667   0.4811252   0.0000000), wk =   0.6666667
        k(    7) = (   0.3333333   0.5773503   0.0000000), wk =   0.1111111

     Dense  grid:    88559 G-vectors     FFT dimensions: (  45,  45, 108)

     Estimated max dynamical RAM per process >     153.55 MB

     Check: negative core charge=   -0.000003

     Initial potential from superposition of free atoms

     starting charge      23.9977, renormalised to      24.0000

     negative rho (up, down):  9.929E-04 0.000E+00
     Starting wfcs are   32 randomized atomic wfcs

     total cpu time spent up to now is        3.4 secs

     per-process dynamical memory:    84.4 Mb

     Self-consistent Calculation

     iteration #  1     ecut=    50.00 Ry     beta= 0.70
     Davidson diagonalization with overlap
     ethr =  1.00E-02,  avg # of iterations =  2.1

     negative rho (up, down):  4.038E-03 0.000E+00

     total cpu time spent up to now is        9.5 secs

     total energy              =     -49.85224448 Ry
     estimated scf accuracy    <       0.74600896 Ry

     iteration #  2     ecut=    50.00 Ry     beta= 0.70
     Davidson diagonalization with overlap
     ethr =  3.11E-03,  avg # of iterations =  2.0

     negative rho (up, down):  5.682E-03 0.000E+00

     total cpu time spent up to now is       15.8 secs

     total energy              =     -49.97502976 Ry
     estimated scf accuracy    <       0.01950784 Ry

     iteration #  3     ecut=    50.00 Ry     beta= 0.70
     Davidson diagonalization with overlap
     ethr =  8.13E-05,  avg # of iterations =  3.6

     negative rho (up, down):  6.180E-03 0.000E+00

     total cpu time spent up to now is       24.1 secs

     total energy              =     -49.98001968 Ry
     estimated scf accuracy    <       0.00587738 Ry

     iteration #  4     ecut=    50.00 Ry     beta= 0.70
     Davidson diagonalization with overlap
     ethr =  2.45E-05,  avg # of iterations =  2.0

     negative rho (up, down):  6.698E-03 0.000E+00

     total cpu time spent up to now is       30.7 secs

     total energy              =     -49.98129819 Ry
     estimated scf accuracy    <       0.00019180 Ry

     iteration #  5     ecut=    50.00 Ry     beta= 0.70
     Davidson diagonalization with overlap
     ethr =  7.99E-07,  avg # of iterations =  7.1

     negative rho (up, down):  6.743E-03 0.000E+00

     total cpu time spent up to now is       29.2 secs

     total energy              =     -49.98132421 Ry
     estimated scf accuracy    <       0.00001885 Ry

     iteration #  6     ecut=    50.00 Ry     beta= 0.70
     Davidson diagonalization with overlap
     ethr =  7.85E-08,  avg # of iterations =  2.7

     negative rho (up, down):  6.745E-03 0.000E+00

     total cpu time spent up to now is       36.5 secs

     End of self-consistent calculation

          k = 0.0000 0.0000 0.0000 ( 11129 PWs)   bands (ev):

   -16.9776 -12.8348 -12.7539 -12.7538 -10.4683 -10.4683  -8.3679  -7.8351
    -2.7629  -2.7629  -1.3213  -0.7956  -0.7955  -0.4559  -0.4559  -0.1375

          k = 0.0000 0.1925 0.0000 ( 11101 PWs)   bands (ev):

   -16.8527 -13.8562 -12.8566 -11.8627 -10.5575 -10.1658  -7.8865  -7.6413
    -3.8937  -3.7197  -2.8851  -1.5209  -0.7364   0.6468   0.7982   0.9686

          k = 0.0000 0.3849 0.0000 ( 11072 PWs)   bands (ev):

   -16.4995 -14.8161 -13.0231 -11.6803  -9.9517  -9.4767  -7.4041  -7.0814
    -5.3977  -4.6723  -4.5135  -2.1119  -1.0896   2.2594   2.4469   2.6335

          k = 0.0000-0.5774 0.0000 ( 11064 PWs)   bands (ev):

   -16.1540 -15.3714 -13.0934 -11.7545  -9.2889  -9.0152  -7.6727  -6.4828
    -6.1387  -5.4790  -4.7267  -2.3125  -1.2365   2.8532   3.2340   3.5170

          k = 0.1667 0.2887 0.0000 ( 11073 PWs)   bands (ev):

   -16.6109 -14.5485 -13.1465 -11.2718 -10.5673  -9.5602  -7.4810  -7.2615
    -4.9406  -4.5342  -3.9847  -2.5945   0.0712   1.0430   1.4372   2.2217

          k = 0.1667 0.4811 0.0000 ( 11083 PWs)   bands (ev):

   -16.1859 -15.2707 -13.4190 -11.0897  -9.8824  -8.8931  -7.9639  -6.5685
    -5.5097  -5.1866  -4.8896  -3.2008   0.1424   2.2757   2.4844   3.0499

          k = 0.3333 0.5774 0.0000 ( 11115 PWs)   bands (ev):

   -15.7414 -15.7414 -13.6862 -10.1607 -10.1607  -8.7339  -8.6183  -5.8533
    -5.8532  -5.1090  -5.1090  -3.7999   1.8586   1.8586   2.4505   2.4505

     the Fermi energy is    -1.2715 ev

!    total energy              =     -49.98132915 Ry
     estimated scf accuracy    <       0.00000031 Ry
     smearing contrib. (-TS)   =      -0.00073658 Ry
     internal energy E=F+TS    =     -49.98059258 Ry

     The total energy is F=E-TS. E is the sum of the following terms:
     one-electron contribution =    -252.25494602 Ry
     hartree contribution      =     130.14619857 Ry
     xc contribution           =     -23.34441982 Ry
     ewald contribution        =      95.47257469 Ry

     convergence has been achieved in   6 iterations

     Writing all to output data dir ../../outdir/borophene.save/

     init_run     :      4.39s CPU      3.29s WALL (       1 calls)
     electrons    :     63.42s CPU     33.10s WALL (       1 calls)

     Called by init_run:
     wfcinit      :      3.50s CPU      2.45s WALL (       1 calls)
     potinit      :      0.13s CPU      0.10s WALL (       1 calls)
     hinit0       :      0.67s CPU      0.62s WALL (       1 calls)

     Called by electrons:
     c_bands      :     50.60s CPU     23.47s WALL (       6 calls)
     sum_band     :     11.27s CPU      8.39s WALL (       6 calls)
     v_of_rho     :      1.11s CPU      0.75s WALL (       7 calls)
     newd         :      0.41s CPU      0.48s WALL (       7 calls)
     mix_rho      :      0.14s CPU      0.13s WALL (       6 calls)

     Called by c_bands:
     init_us_2    :      0.46s CPU      0.40s WALL (      91 calls)
     init_us_2:cp :      0.46s CPU      0.40s WALL (      91 calls)
     cegterg      :     49.69s CPU     22.73s WALL (      42 calls)

     Called by *egterg:
     cdiaghg      :      0.11s CPU      0.08s WALL (     179 calls)
     h_psi        :     48.29s CPU     21.82s WALL (     186 calls)
     s_psi        :      1.17s CPU      0.71s WALL (     186 calls)
     g_psi        :      0.19s CPU      0.17s WALL (     137 calls)

     Called by h_psi:
     h_psi:calbec :      1.75s CPU      1.20s WALL (     186 calls)
     vloc_psi     :     45.21s CPU     19.78s WALL (     186 calls)
     add_vuspsi   :      1.07s CPU      0.63s WALL (     186 calls)

     General routines
     calbec       :      2.29s CPU      1.60s WALL (     228 calls)
     fft          :      1.03s CPU      0.88s WALL (      77 calls)
     ffts         :      0.10s CPU      0.08s WALL (       6 calls)
     fftw         :     46.15s CPU     22.26s WALL (    4836 calls)

     Parallel routines

     PWSCF        :   1m 7.90s CPU     36.54s WALL


   This run was terminated on:  15:54:24  22Jul2025            

=------------------------------------------------------------------------------=
   JOB DONE.
=------------------------------------------------------------------------------=
