
     Program PWSCF v.7.2 starts on 22Jul2025 at 15:52:24 

     This program is part of the open-source Quantum ESPRESSO suite
     for quantum simulation of materials; please cite
         "P. Giannozzi et al., J. Phys.:Condens. Matter 21 395502 (2009);
         "P. Giannozzi et al., J. Phys.:Condens. Matter 29 465901 (2017);
         "P. Giannozzi et al., J. Chem. Phys. 152 154105 (2020);
          URL http://www.quantum-espresso.org", 
     in publications or presentations arising from this work. More details at
     http://www.quantum-espresso.org/quote

     Parallel version (MPI & OpenMP), running on       2 processor cores
     Number of MPI processes:                 1
     Threads/MPI process:                     2

     MPI processes distributed on     1 nodes
     383 MiB available memory on the printing compute node when the environment starts

     Reading input from ../vacuum/alpha_2.0.in

     Current dimensions of program PWSCF are:
     Max number of different atomic species (ntypx) = 10
     Max number of k-points (npk) =  40000
     Max angular momentum in pseudopotentials (lmaxx) =  4
     file B.pbesol-n-rrkjus_psl.1.0.0.UPF: wavefunction(s)  2S renormalized

     Subspace diagonalization in iterative solution of the eigenvalue problem:
     a serial algorithm will be used


     G-vector sticks info
     --------------------
     sticks:   dense  smooth     PW     G-vecs:    dense   smooth      PW
     Sum        1237    1237    349                70777    70777   10629

     Using Slab Decomposition



     bravais-lattice index     =            4
     lattice parameter (alat)  =       9.5000  a.u.
     unit-cell volume          =    1485.0171 (a.u.)^3
     number of atoms/cell      =            8
     number of atomic types    =            1
     number of electrons       =        24.00
     number of Kohn-Sham states=           16
     kinetic-energy cutoff     =      50.0000  Ry
     charge density cutoff     =     200.0000  Ry
     scf convergence threshold =      1.0E-06
     mixing beta               =       0.7000
     number of iterations used =            8  plain     mixing
     Exchange-correlation= PBESOL
                           (   1   4  10   8   0   0   0)

     celldm(1)=   9.500000  celldm(2)=   0.000000  celldm(3)=   2.000000
     celldm(4)=   0.000000  celldm(5)=   0.000000  celldm(6)=   0.000000

     crystal axes: (cart. coord. in units of alat)
               a(1) = (   1.000000   0.000000   0.000000 )  
               a(2) = (  -0.500000   0.866025   0.000000 )  
               a(3) = (   0.000000   0.000000   2.000000 )  

     reciprocal axes: (cart. coord. in units 2 pi/alat)
               b(1) = (  1.000000  0.577350 -0.000000 )  
               b(2) = (  0.000000  1.154701  0.000000 )  
               b(3) = (  0.000000 -0.000000  0.500000 )  


     PseudoPot. # 1 for B  read from file:
     ../../pseudo/B.pbesol-n-rrkjus_psl.1.0.0.UPF
     MD5 check sum: a3839a09b1a4e02f2a06a66adc9253fc
     Pseudo is Ultrasoft + core correction, Zval =  3.0
     Generated using &quot;atomic&quot; code by A. Dal Corso  v.6.3MaX
     Using radial grid of 1059 points,  4 beta functions with: 
                l(1) =   0
                l(2) =   0
                l(3) =   1
                l(4) =   1
     Q(r) pseudized with 0 coefficients 


     atomic species   valence    mass     pseudopotential
        B              3.00    10.81100     B ( 1.00)

     24 Sym. Ops., with inversion, found



   Cartesian axes

     site n.     atom                  positions (alat units)
         1           B   tau(   1) = (   0.3333330   0.0000000   0.0000000  )
         2           B   tau(   2) = (   0.6666670   0.0000000   0.0000000  )
         3           B   tau(   3) = (  -0.1666665   0.2886748   0.0000000  )
         4           B   tau(   4) = (   0.1666665   0.2886748   0.0000000  )
         5           B   tau(   5) = (   0.5000005   0.2886748   0.0000000  )
         6           B   tau(   6) = (  -0.3333335   0.5773506   0.0000000  )
         7           B   tau(   7) = (  -0.0000005   0.5773506   0.0000000  )
         8           B   tau(   8) = (   0.3333335   0.5773506   0.0000000  )

     number of k points=     7  Marzari-Vanderbilt smearing, width (Ry)=  0.0200
                       cart. coord. in units 2pi/alat
        k(    1) = (   0.0000000   0.0000000   0.0000000), wk =   0.0555556
        k(    2) = (   0.0000000   0.1924501   0.0000000), wk =   0.3333333
        k(    3) = (   0.0000000   0.3849002   0.0000000), wk =   0.3333333
        k(    4) = (   0.0000000  -0.5773503   0.0000000), wk =   0.1666667
        k(    5) = (   0.1666667   0.2886751   0.0000000), wk =   0.3333333
        k(    6) = (   0.1666667   0.4811252   0.0000000), wk =   0.6666667
        k(    7) = (   0.3333333   0.5773503   0.0000000), wk =   0.1111111

     Dense  grid:    70777 G-vectors     FFT dimensions: (  45,  45,  90)

     Estimated max dynamical RAM per process >     123.32 MB

     Check: negative core charge=   -0.000004

     Initial potential from superposition of free atoms

     starting charge      23.9977, renormalised to      24.0000

     negative rho (up, down):  2.828E-04 0.000E+00
     Starting wfcs are   32 randomized atomic wfcs

     total cpu time spent up to now is        3.0 secs

     per-process dynamical memory:    70.4 Mb

     Self-consistent Calculation

     iteration #  1     ecut=    50.00 Ry     beta= 0.70
     Davidson diagonalization with overlap
     ethr =  1.00E-02,  avg # of iterations =  2.1

     negative rho (up, down):  2.287E-03 0.000E+00

     total cpu time spent up to now is        8.2 secs

     total energy              =     -49.85181838 Ry
     estimated scf accuracy    <       0.74672852 Ry

     iteration #  2     ecut=    50.00 Ry     beta= 0.70
     Davidson diagonalization with overlap
     ethr =  3.11E-03,  avg # of iterations =  2.0

     negative rho (up, down):  3.535E-03 0.000E+00

     total cpu time spent up to now is       13.3 secs

     total energy              =     -49.97491099 Ry
     estimated scf accuracy    <       0.01982751 Ry

     iteration #  3     ecut=    50.00 Ry     beta= 0.70
     Davidson diagonalization with overlap
     ethr =  8.26E-05,  avg # of iterations =  3.6

     negative rho (up, down):  3.929E-03 0.000E+00

     total cpu time spent up to now is       19.4 secs

     total energy              =     -49.97999004 Ry
     estimated scf accuracy    <       0.00597474 Ry

     iteration #  4     ecut=    50.00 Ry     beta= 0.70
     Davidson diagonalization with overlap
     ethr =  2.49E-05,  avg # of iterations =  2.0

     negative rho (up, down):  4.344E-03 0.000E+00

     total cpu time spent up to now is       24.3 secs

     total energy              =     -49.98128906 Ry
     estimated scf accuracy    <       0.00019364 Ry

     iteration #  5     ecut=    50.00 Ry     beta= 0.70
     Davidson diagonalization with overlap
     ethr =  8.07E-07,  avg # of iterations =  7.7

     negative rho (up, down):  4.383E-03 0.000E+00

     total cpu time spent up to now is       20.8 secs

     total energy              =     -49.98131444 Ry
     estimated scf accuracy    <       0.00001864 Ry

     iteration #  6     ecut=    50.00 Ry     beta= 0.70
     Davidson diagonalization with overlap
     ethr =  7.76E-08,  avg # of iterations =  2.6

     negative rho (up, down):  4.384E-03 0.000E+00

     total cpu time spent up to now is       83.1 secs

     End of self-consistent calculation

          k = 0.0000 0.0000 0.0000 (  8911 PWs)   bands (ev):

   -16.2272 -12.0846 -12.0035 -12.0035  -9.7179  -9.7178  -7.6174  -7.0842
    -2.0125  -2.0125  -0.5707  -0.0447  -0.0447   0.2944   0.2944   0.6134

          k = 0.0000 0.1925 0.0000 (  8873 PWs)   bands (ev):

   -16.1023 -13.1059 -12.1062 -11.1124  -9.8071  -9.4154  -7.1361  -6.8904
    -3.1433  -2.9693  -2.1343  -0.7700   0.0145   1.3971   1.5486   1.7195

          k = 0.0000 0.3849 0.0000 (  8862 PWs)   bands (ev):

   -15.7491 -14.0657 -12.2727 -10.9299  -9.2015  -8.7264  -6.6537  -6.3304
    -4.6473  -3.9218  -3.7627  -1.3610  -0.3388   2.9975   3.1309   3.3838

          k = 0.0000-0.5774 0.0000 (  8808 PWs)   bands (ev):

   -15.4036 -14.6210 -12.3430 -11.0041  -8.5388  -8.2650  -6.9223  -5.7319
    -5.3881  -4.7281  -3.9762  -1.5616  -0.4856   3.6015   3.9435   4.2298

          k = 0.1667 0.2887 0.0000 (  8825 PWs)   bands (ev):

   -15.8604 -13.7982 -12.3961 -10.5216  -9.8169  -8.8099  -6.7306  -6.5106
    -4.1902  -3.7838  -3.2339  -1.8436   0.8220   1.7944   2.1873   2.8940

          k = 0.1667 0.4811 0.0000 (  8881 PWs)   bands (ev):

   -15.4355 -14.5204 -12.6686 -10.3393  -9.1322  -8.1429  -7.2135  -5.8176
    -4.7592  -4.4358  -4.1392  -2.4499   0.8933   3.0252   3.2359   3.7290

          k = 0.3333 0.5774 0.0000 (  8883 PWs)   bands (ev):

   -14.9910 -14.9910 -12.9357  -9.4104  -9.4104  -7.9834  -7.8681  -5.1024
    -5.1024  -4.3586  -4.3585  -3.0489   2.6094   2.6094   3.2007   3.2007

     the Fermi energy is    -0.5207 ev

!    total energy              =     -49.98131946 Ry
     estimated scf accuracy    <       0.00000047 Ry
     smearing contrib. (-TS)   =      -0.00073694 Ry
     internal energy E=F+TS    =     -49.98058252 Ry

     The total energy is F=E-TS. E is the sum of the following terms:
     one-electron contribution =    -180.26270510 Ry
     hartree contribution      =      94.81181804 Ry
     xc contribution           =     -23.34443589 Ry
     ewald contribution        =      58.81474043 Ry

     convergence has been achieved in   6 iterations

     Writing all to output data dir ../../outdir/borophene.save/

     init_run     :      3.81s CPU      2.92s WALL (       1 calls)
     electrons    :     45.69s CPU     80.12s WALL (       1 calls)

     Called by init_run:
     wfcinit      :      3.09s CPU      2.23s WALL (       1 calls)
     potinit      :      0.08s CPU      0.07s WALL (       1 calls)
     hinit0       :      0.55s CPU      0.52s WALL (       1 calls)

     Called by electrons:
     c_bands      :     35.82s CPU     15.56s WALL (       6 calls)
     sum_band     :      8.90s CPU      7.19s WALL (       6 calls)
     v_of_rho     :      0.68s CPU     57.03s WALL (       7 calls)
     newd         :      0.25s CPU      0.32s WALL (       7 calls)
     mix_rho      :      0.13s CPU      0.11s WALL (       6 calls)

     Called by c_bands:
     init_us_2    :      0.29s CPU      0.28s WALL (      91 calls)
     init_us_2:cp :      0.29s CPU      0.28s WALL (      91 calls)
     cegterg      :     35.31s CPU     15.11s WALL (      42 calls)

     Called by *egterg:
     cdiaghg      :      0.10s CPU      0.06s WALL (     182 calls)
     h_psi        :     35.56s CPU     15.45s WALL (     189 calls)
     s_psi        :      0.64s CPU      0.37s WALL (     189 calls)
     g_psi        :      0.12s CPU      0.10s WALL (     140 calls)

     Called by h_psi:
     h_psi:calbec :      1.01s CPU      0.70s WALL (     189 calls)
     vloc_psi     :     33.84s CPU     14.27s WALL (     189 calls)
     add_vuspsi   :      0.55s CPU      0.35s WALL (     189 calls)

     General routines
     calbec       :      1.28s CPU      0.91s WALL (     231 calls)
     fft          :      0.75s CPU     57.18s WALL (      77 calls)
     ffts         :      0.10s CPU      0.07s WALL (       6 calls)
     fftw         :     38.17s CPU     18.43s WALL (    4862 calls)

     Parallel routines

     PWSCF        :     49.58s CPU   1m23.18s WALL


   This run was terminated on:  15:53:47  22Jul2025            

=------------------------------------------------------------------------------=
   JOB DONE.
=------------------------------------------------------------------------------=
