
     Program PWSCF v.7.2 starts on  3Jul2025 at 12:28:21 

     This program is part of the open-source Quantum ESPRESSO suite
     for quantum simulation of materials; please cite
         "P. Giannozzi et al., J. Phys.:Condens. Matter 21 395502 (2009);
         "P. Giannozzi et al., J. Phys.:Condens. Matter 29 465901 (2017);
         "P. Giannozzi et al., J. Chem. Phys. 152 154105 (2020);
          URL http://www.quantum-espresso.org", 
     in publications or presentations arising from this work. More details at
     http://www.quantum-espresso.org/quote

     Parallel version (MPI & OpenMP), running on       2 processor cores
     Number of MPI processes:                 1
     Threads/MPI process:                     2

     MPI processes distributed on     1 nodes
     399 MiB available memory on the printing compute node when the environment starts

     Reading input from ../latticeparam/alpha_10_9.62.in

     Current dimensions of program PWSCF are:
     Max number of different atomic species (ntypx) = 10
     Max number of k-points (npk) =  40000
     Max angular momentum in pseudopotentials (lmaxx) =  4
     file B.pbesol-n-rrkjus_psl.1.0.0.UPF: wavefunction(s)  2S renormalized

     IMPORTANT: XC functional enforced from input :
     Exchange-correlation= PBESOL
                           (   1   4  10   8   0   0   0)
     Any further DFT definition will be discarded
     Please, verify this is what you really want


     Subspace diagonalization in iterative solution of the eigenvalue problem:
     a serial algorithm will be used


     G-vector sticks info
     --------------------
     sticks:   dense  smooth     PW     G-vecs:    dense   smooth      PW
     Sum        1789    1789    499               122071   122071   17591

     Using Slab Decomposition



     bravais-lattice index     =            4
     lattice parameter (alat)  =       9.6200  a.u.
     unit-cell volume          =    1542.0052 (a.u.)^3
     number of atoms/cell      =            8
     number of atomic types    =            1
     number of electrons       =        24.00
     number of Kohn-Sham states=           16
     kinetic-energy cutoff     =      70.0000  Ry
     charge density cutoff     =     280.0000  Ry
     scf convergence threshold =      1.0E-06
     mixing beta               =       0.7000
     number of iterations used =            8  plain     mixing
     Exchange-correlation= PBESOL
                           (   1   4  10   8   0   0   0)

     celldm(1)=   9.620000  celldm(2)=   0.000000  celldm(3)=   2.000000
     celldm(4)=   0.000000  celldm(5)=   0.000000  celldm(6)=   0.000000

     crystal axes: (cart. coord. in units of alat)
               a(1) = (   1.000000   0.000000   0.000000 )  
               a(2) = (  -0.500000   0.866025   0.000000 )  
               a(3) = (   0.000000   0.000000   2.000000 )  

     reciprocal axes: (cart. coord. in units 2 pi/alat)
               b(1) = (  1.000000  0.577350 -0.000000 )  
               b(2) = (  0.000000  1.154701  0.000000 )  
               b(3) = (  0.000000 -0.000000  0.500000 )  


     PseudoPot. # 1 for B  read from file:
     ../../pseudo/B.pbesol-n-rrkjus_psl.1.0.0.UPF
     MD5 check sum: a3839a09b1a4e02f2a06a66adc9253fc
     Pseudo is Ultrasoft + core correction, Zval =  3.0
     Generated using &quot;atomic&quot; code by A. Dal Corso  v.6.3MaX
     Using radial grid of 1059 points,  4 beta functions with: 
                l(1) =   0
                l(2) =   0
                l(3) =   1
                l(4) =   1
     Q(r) pseudized with 0 coefficients 


     atomic species   valence    mass     pseudopotential
        B              3.00    10.81100     B ( 1.00)

     24 Sym. Ops., with inversion, found



   Cartesian axes

     site n.     atom                  positions (alat units)
         1           B   tau(   1) = (   0.3333330   0.0000000   0.0000000  )
         2           B   tau(   2) = (   0.6666670   0.0000000   0.0000000  )
         3           B   tau(   3) = (  -0.1666665   0.2886748   0.0000000  )
         4           B   tau(   4) = (   0.1666665   0.2886748   0.0000000  )
         5           B   tau(   5) = (   0.5000005   0.2886748   0.0000000  )
         6           B   tau(   6) = (  -0.3333335   0.5773506   0.0000000  )
         7           B   tau(   7) = (  -0.0000005   0.5773506   0.0000000  )
         8           B   tau(   8) = (   0.3333335   0.5773506   0.0000000  )

     number of k points=    14  Marzari-Vanderbilt smearing, width (Ry)=  0.0350
                       cart. coord. in units 2pi/alat
        k(    1) = (   0.0000000   0.0000000   0.0000000), wk =   0.0200000
        k(    2) = (   0.0000000   0.1154701   0.0000000), wk =   0.1200000
        k(    3) = (   0.0000000   0.2309401   0.0000000), wk =   0.1200000
        k(    4) = (   0.0000000   0.3464102   0.0000000), wk =   0.1200000
        k(    5) = (   0.0000000   0.4618802   0.0000000), wk =   0.1200000
        k(    6) = (   0.0000000  -0.5773503   0.0000000), wk =   0.0600000
        k(    7) = (   0.1000000   0.1732051   0.0000000), wk =   0.1200000
        k(    8) = (   0.1000000   0.2886751   0.0000000), wk =   0.2400000
        k(    9) = (   0.1000000   0.4041452   0.0000000), wk =   0.2400000
        k(   10) = (   0.1000000   0.5196152   0.0000000), wk =   0.2400000
        k(   11) = (   0.2000000   0.3464102   0.0000000), wk =   0.1200000
        k(   12) = (   0.2000000   0.4618802   0.0000000), wk =   0.2400000
        k(   13) = (   0.2000000   0.5773503   0.0000000), wk =   0.1200000
        k(   14) = (   0.3000000   0.5196152   0.0000000), wk =   0.1200000

     Dense  grid:   122071 G-vectors     FFT dimensions: (  54,  54, 108)

     Estimated max dynamical RAM per process >     238.50 MB

     Initial potential from superposition of free atoms

     starting charge      23.9977, renormalised to      24.0000

     negative rho (up, down):  4.797E-05 0.000E+00
     Starting wfcs are   32 randomized atomic wfcs

     total cpu time spent up to now is       -0.5 secs

     per-process dynamical memory:   141.1 Mb

     Self-consistent Calculation

     iteration #  1     ecut=    70.00 Ry     beta= 0.70
     Davidson diagonalization with overlap
     ethr =  1.00E-02,  avg # of iterations =  2.0

     negative rho (up, down):  3.710E-04 0.000E+00

     total cpu time spent up to now is       19.7 secs

     total energy              =     -49.87423900 Ry
     estimated scf accuracy    <       0.66427722 Ry

     iteration #  2     ecut=    70.00 Ry     beta= 0.70
     Davidson diagonalization with overlap
     ethr =  2.77E-03,  avg # of iterations =  2.0

     negative rho (up, down):  6.412E-04 0.000E+00

     total cpu time spent up to now is       38.8 secs

     total energy              =     -49.98232869 Ry
     estimated scf accuracy    <       0.01710243 Ry

     iteration #  3     ecut=    70.00 Ry     beta= 0.70
     Davidson diagonalization with overlap
     ethr =  7.13E-05,  avg # of iterations =  3.4

     negative rho (up, down):  7.368E-04 0.000E+00

     total cpu time spent up to now is       48.3 secs

     total energy              =     -49.98670333 Ry
     estimated scf accuracy    <       0.00457958 Ry

     iteration #  4     ecut=    70.00 Ry     beta= 0.70
     Davidson diagonalization with overlap
     ethr =  1.91E-05,  avg # of iterations =  3.6

     negative rho (up, down):  8.377E-04 0.000E+00

     total cpu time spent up to now is      123.8 secs

     total energy              =     -49.98769226 Ry
     estimated scf accuracy    <       0.00016071 Ry

     iteration #  5     ecut=    70.00 Ry     beta= 0.70
     Davidson diagonalization with overlap
     c_bands:  1 eigenvalues not converged
     ethr =  6.70E-07,  avg # of iterations =  6.4

     negative rho (up, down):  8.467E-04 0.000E+00

     total cpu time spent up to now is      146.6 secs

     total energy              =     -49.98771067 Ry
     estimated scf accuracy    <       0.00001601 Ry

     iteration #  6     ecut=    70.00 Ry     beta= 0.70
     Davidson diagonalization with overlap
     ethr =  6.67E-08,  avg # of iterations =  2.4

     negative rho (up, down):  8.470E-04 0.000E+00

     total cpu time spent up to now is      153.4 secs

     End of self-consistent calculation

          k = 0.0000 0.0000 0.0000 ( 15237 PWs)   bands (ev):

   -16.1773 -12.0832 -12.0005 -12.0004  -9.7776  -9.7775  -7.6387  -7.0485
    -2.2005  -2.2005  -0.7135  -0.2042  -0.2042   0.0380   0.0381   0.4318

          k = 0.0000 0.1155 0.0000 ( 15254 PWs)   bands (ev):

   -16.1327 -12.6783 -12.0431 -11.4395  -9.8347  -9.6620  -7.4444  -6.9804
    -2.7089  -2.6317  -1.5374  -0.5891  -0.0380   0.5102   0.5854   0.9499

          k = 0.0000 0.2309 0.0000 ( 15230 PWs)   bands (ev):

   -16.0010 -13.2967 -12.1424 -11.0185  -9.8007  -9.3514  -7.0249  -6.7779
    -3.6291  -3.3918  -2.5737  -1.0531  -0.2137   1.4185   1.6158   1.8108

          k = 0.0000 0.3464 0.0000 ( 15264 PWs)   bands (ev):

   -15.7905 -13.8694 -12.2472 -10.9347  -9.4067  -8.9264  -6.7134  -6.4492
    -4.5319  -3.9758  -3.5275  -1.3987  -0.4222   2.3574   2.6854   2.8102

          k = 0.0000 0.4619 0.0000 ( 15246 PWs)   bands (ev):

   -15.5306 -14.3524 -12.3216 -10.9918  -8.8587  -8.5068  -6.7901  -6.0276
    -5.2436  -4.3323  -4.1469  -1.6087  -0.5693   3.1022   3.5123   3.6052

          k = 0.0000-0.5774 0.0000 ( 15266 PWs)   bands (ev):

   -15.3663 -14.5921 -12.3481 -11.0226  -8.5609  -8.3097  -6.9668  -5.7343
    -5.5385  -4.7544  -4.1229  -1.6791  -0.6212   3.1299   3.6290   4.0445

          k = 0.1000 0.1732 0.0000 ( 15239 PWs)   bands (ev):

   -16.0445 -13.1270 -12.1448 -11.0480  -9.8978  -9.4204  -7.1426  -6.8450
    -3.4009  -3.1569  -2.2609  -1.1580   0.2492   1.0516   1.0891   1.4327

          k = 0.1000 0.2887 0.0000 ( 15255 PWs)   bands (ev):

   -15.8724 -13.6575 -12.3030 -10.7366  -9.7830  -9.0077  -6.8021  -6.5785
    -4.2047  -3.7957  -3.1331  -1.6718   0.2502   1.7594   1.7743   2.5858

          k = 0.1000 0.4041 0.0000 ( 15267 PWs)   bands (ev):

   -15.6308 -14.1612 -12.4372 -10.7035  -9.3173  -8.5550  -6.8003  -6.1958
    -4.8352  -4.1742  -3.9712  -1.9967   0.1102   2.4487   2.7622   3.2826

          k = 0.1000 0.5196 0.0000 ( 15256 PWs)   bands (ev):

   -15.3812 -14.5474 -12.5108 -10.7391  -8.8253  -8.2247  -7.1296  -5.7755
    -5.2420  -4.6303  -4.1764  -2.1545   0.0206   2.9650   3.2630   3.8205

          k = 0.2000 0.3464 0.0000 ( 15241 PWs)   bands (ev):

   -15.6657 -14.0713 -12.5457 -10.3220  -9.7432  -8.5469  -6.8410  -6.2540
    -4.5681  -4.2320  -3.7605  -2.3031   0.8959   1.8536   2.1117   3.2098

          k = 0.2000 0.4619 0.0000 ( 15248 PWs)   bands (ev):

   -15.4032 -14.4722 -12.7219 -10.1743  -9.3498  -8.1623  -7.3029  -5.8314
    -4.7387  -4.4045  -4.3642  -2.6689   1.0546   2.4705   2.5978   3.4437

          k = 0.2000 0.5774 0.0000 ( 15245 PWs)   bands (ev):

   -15.2189 -14.7053 -12.7835 -10.1689  -9.0216  -8.0052  -7.6534  -5.5134
    -4.8802  -4.8056  -4.2783  -2.7842   1.0491   2.7206   3.0220   3.3444

          k = 0.3000 0.5196 0.0000 ( 15239 PWs)   bands (ev):

   -15.1313 -14.7816 -12.8980  -9.6685  -9.3548  -7.9329  -7.8845  -5.3934
    -4.8529  -4.5639  -4.4549  -3.0474   1.9391   2.5601   2.5910   2.9529

     the Fermi energy is    -0.6563 ev

!    total energy              =     -49.98771513 Ry
     estimated scf accuracy    <       0.00000089 Ry
     smearing contrib. (-TS)   =       0.00046659 Ry
     internal energy E=F+TS    =     -49.98818172 Ry

     The total energy is F=E-TS. E is the sum of the following terms:
     one-electron contribution =    -178.87560355 Ry
     hartree contribution      =      93.95475709 Ry
     xc contribution           =     -23.14841988 Ry
     ewald contribution        =      58.08108463 Ry

     convergence has been achieved in   6 iterations

     Writing all to output data dir ../../outdir/borophene.save/

     init_run     :     14.97s CPU     -0.60s WALL (       1 calls)
     electrons    :    164.53s CPU    153.88s WALL (       1 calls)

     Called by init_run:
     wfcinit      :     13.41s CPU     -2.03s WALL (       1 calls)
     potinit      :      0.29s CPU      0.23s WALL (       1 calls)
     hinit0       :      1.04s CPU      0.90s WALL (       1 calls)

     Called by electrons:
     c_bands      :    134.92s CPU    131.48s WALL (       6 calls)
     sum_band     :     27.24s CPU     20.29s WALL (       6 calls)
     v_of_rho     :      1.70s CPU      1.24s WALL (       7 calls)
     newd         :      0.69s CPU      0.93s WALL (       7 calls)
     mix_rho      :      0.26s CPU      0.22s WALL (       6 calls)

     Called by c_bands:
     init_us_2    :      1.58s CPU      1.45s WALL (     182 calls)
     init_us_2:cp :      1.58s CPU      1.45s WALL (     182 calls)
     cegterg      :    132.03s CPU    129.24s WALL (      84 calls)

     Called by *egterg:
     cdiaghg      :      0.27s CPU      0.20s WALL (     361 calls)
     h_psi        :    130.26s CPU    116.78s WALL (     375 calls)
     s_psi        :      3.77s CPU      2.21s WALL (     375 calls)
     g_psi        :      0.36s CPU      0.35s WALL (     277 calls)

     Called by h_psi:
     h_psi:calbec :      3.68s CPU      3.29s WALL (     375 calls)
     vloc_psi     :    122.48s CPU    110.85s WALL (     375 calls)
     add_vuspsi   :      3.55s CPU      2.09s WALL (     375 calls)

     General routines
     calbec       :      4.82s CPU      4.27s WALL (     459 calls)
     fft          :      1.40s CPU      1.06s WALL (      77 calls)
     ffts         :      0.07s CPU      0.05s WALL (       6 calls)
     fftw         :    114.76s CPU    106.68s WALL (    9740 calls)

     Parallel routines

     PWSCF        :   2m59.72s CPU   2m33.77s WALL


   This run was terminated on:  12:30:55   3Jul2025            

=------------------------------------------------------------------------------=
   JOB DONE.
=------------------------------------------------------------------------------=
