
     Program PWSCF v.7.2 starts on  3Jul2025 at 12:23:39 

     This program is part of the open-source Quantum ESPRESSO suite
     for quantum simulation of materials; please cite
         "P. Giannozzi et al., J. Phys.:Condens. Matter 21 395502 (2009);
         "P. Giannozzi et al., J. Phys.:Condens. Matter 29 465901 (2017);
         "P. Giannozzi et al., J. Chem. Phys. 152 154105 (2020);
          URL http://www.quantum-espresso.org", 
     in publications or presentations arising from this work. More details at
     http://www.quantum-espresso.org/quote

     Parallel version (MPI & OpenMP), running on       2 processor cores
     Number of MPI processes:                 1
     Threads/MPI process:                     2

     MPI processes distributed on     1 nodes
     429 MiB available memory on the printing compute node when the environment starts

     Reading input from ../latticeparam/alpha_10_9.58.in

     Current dimensions of program PWSCF are:
     Max number of different atomic species (ntypx) = 10
     Max number of k-points (npk) =  40000
     Max angular momentum in pseudopotentials (lmaxx) =  4
     file B.pbesol-n-rrkjus_psl.1.0.0.UPF: wavefunction(s)  2S renormalized

     IMPORTANT: XC functional enforced from input :
     Exchange-correlation= PBESOL
                           (   1   4  10   8   0   0   0)
     Any further DFT definition will be discarded
     Please, verify this is what you really want


     Subspace diagonalization in iterative solution of the eigenvalue problem:
     a serial algorithm will be used


     G-vector sticks info
     --------------------
     sticks:   dense  smooth     PW     G-vecs:    dense   smooth      PW
     Sum        1777    1777    499               120595   120595   17423

     Using Slab Decomposition



     bravais-lattice index     =            4
     lattice parameter (alat)  =       9.5800  a.u.
     unit-cell volume          =    1522.8501 (a.u.)^3
     number of atoms/cell      =            8
     number of atomic types    =            1
     number of electrons       =        24.00
     number of Kohn-Sham states=           16
     kinetic-energy cutoff     =      70.0000  Ry
     charge density cutoff     =     280.0000  Ry
     scf convergence threshold =      1.0E-06
     mixing beta               =       0.7000
     number of iterations used =            8  plain     mixing
     Exchange-correlation= PBESOL
                           (   1   4  10   8   0   0   0)

     celldm(1)=   9.580000  celldm(2)=   0.000000  celldm(3)=   2.000000
     celldm(4)=   0.000000  celldm(5)=   0.000000  celldm(6)=   0.000000

     crystal axes: (cart. coord. in units of alat)
               a(1) = (   1.000000   0.000000   0.000000 )  
               a(2) = (  -0.500000   0.866025   0.000000 )  
               a(3) = (   0.000000   0.000000   2.000000 )  

     reciprocal axes: (cart. coord. in units 2 pi/alat)
               b(1) = (  1.000000  0.577350 -0.000000 )  
               b(2) = (  0.000000  1.154701  0.000000 )  
               b(3) = (  0.000000 -0.000000  0.500000 )  


     PseudoPot. # 1 for B  read from file:
     ../../pseudo/B.pbesol-n-rrkjus_psl.1.0.0.UPF
     MD5 check sum: a3839a09b1a4e02f2a06a66adc9253fc
     Pseudo is Ultrasoft + core correction, Zval =  3.0
     Generated using &quot;atomic&quot; code by A. Dal Corso  v.6.3MaX
     Using radial grid of 1059 points,  4 beta functions with: 
                l(1) =   0
                l(2) =   0
                l(3) =   1
                l(4) =   1
     Q(r) pseudized with 0 coefficients 


     atomic species   valence    mass     pseudopotential
        B              3.00    10.81100     B ( 1.00)

     24 Sym. Ops., with inversion, found



   Cartesian axes

     site n.     atom                  positions (alat units)
         1           B   tau(   1) = (   0.3333330   0.0000000   0.0000000  )
         2           B   tau(   2) = (   0.6666670   0.0000000   0.0000000  )
         3           B   tau(   3) = (  -0.1666665   0.2886748   0.0000000  )
         4           B   tau(   4) = (   0.1666665   0.2886748   0.0000000  )
         5           B   tau(   5) = (   0.5000005   0.2886748   0.0000000  )
         6           B   tau(   6) = (  -0.3333335   0.5773506   0.0000000  )
         7           B   tau(   7) = (  -0.0000005   0.5773506   0.0000000  )
         8           B   tau(   8) = (   0.3333335   0.5773506   0.0000000  )

     number of k points=    14  Marzari-Vanderbilt smearing, width (Ry)=  0.0350
                       cart. coord. in units 2pi/alat
        k(    1) = (   0.0000000   0.0000000   0.0000000), wk =   0.0200000
        k(    2) = (   0.0000000   0.1154701   0.0000000), wk =   0.1200000
        k(    3) = (   0.0000000   0.2309401   0.0000000), wk =   0.1200000
        k(    4) = (   0.0000000   0.3464102   0.0000000), wk =   0.1200000
        k(    5) = (   0.0000000   0.4618802   0.0000000), wk =   0.1200000
        k(    6) = (   0.0000000  -0.5773503   0.0000000), wk =   0.0600000
        k(    7) = (   0.1000000   0.1732051   0.0000000), wk =   0.1200000
        k(    8) = (   0.1000000   0.2886751   0.0000000), wk =   0.2400000
        k(    9) = (   0.1000000   0.4041452   0.0000000), wk =   0.2400000
        k(   10) = (   0.1000000   0.5196152   0.0000000), wk =   0.2400000
        k(   11) = (   0.2000000   0.3464102   0.0000000), wk =   0.1200000
        k(   12) = (   0.2000000   0.4618802   0.0000000), wk =   0.2400000
        k(   13) = (   0.2000000   0.5773503   0.0000000), wk =   0.1200000
        k(   14) = (   0.3000000   0.5196152   0.0000000), wk =   0.1200000

     Dense  grid:   120595 G-vectors     FFT dimensions: (  54,  54, 108)

     Estimated max dynamical RAM per process >     235.86 MB

     Initial potential from superposition of free atoms

     starting charge      23.9977, renormalised to      24.0000

     negative rho (up, down):  4.485E-05 0.000E+00
     Starting wfcs are   32 randomized atomic wfcs

     total cpu time spent up to now is       12.2 secs

     per-process dynamical memory:   140.0 Mb

     Self-consistent Calculation

     iteration #  1     ecut=    70.00 Ry     beta= 0.70
     Davidson diagonalization with overlap
     ethr =  1.00E-02,  avg # of iterations =  2.0

     negative rho (up, down):  3.638E-04 0.000E+00

     total cpu time spent up to now is       35.4 secs

     total energy              =     -49.87012034 Ry
     estimated scf accuracy    <       0.68877484 Ry

     iteration #  2     ecut=    70.00 Ry     beta= 0.70
     Davidson diagonalization with overlap
     ethr =  2.87E-03,  avg # of iterations =  2.0

     negative rho (up, down):  6.334E-04 0.000E+00

     total cpu time spent up to now is       43.1 secs

     total energy              =     -49.98241743 Ry
     estimated scf accuracy    <       0.01813346 Ry

     iteration #  3     ecut=    70.00 Ry     beta= 0.70
     Davidson diagonalization with overlap
     ethr =  7.56E-05,  avg # of iterations =  2.9

     negative rho (up, down):  7.290E-04 0.000E+00

     total cpu time spent up to now is       54.4 secs

     total energy              =     -49.98709657 Ry
     estimated scf accuracy    <       0.00474541 Ry

     iteration #  4     ecut=    70.00 Ry     beta= 0.70
     Davidson diagonalization with overlap
     ethr =  1.98E-05,  avg # of iterations =  4.3

     negative rho (up, down):  8.305E-04 0.000E+00

     total cpu time spent up to now is       78.2 secs

     total energy              =     -49.98812170 Ry
     estimated scf accuracy    <       0.00016395 Ry

     iteration #  5     ecut=    70.00 Ry     beta= 0.70
     Davidson diagonalization with overlap
     ethr =  6.83E-07,  avg # of iterations =  4.4

     negative rho (up, down):  8.392E-04 0.000E+00

     total cpu time spent up to now is       91.3 secs

     total energy              =     -49.98814120 Ry
     estimated scf accuracy    <       0.00001541 Ry

     iteration #  6     ecut=    70.00 Ry     beta= 0.70
     Davidson diagonalization with overlap
     ethr =  6.42E-08,  avg # of iterations =  2.3

     negative rho (up, down):  8.395E-04 0.000E+00

     total cpu time spent up to now is      164.8 secs

     End of self-consistent calculation

          k = 0.0000 0.0000 0.0000 ( 15117 PWs)   bands (ev):

   -16.1950 -12.0834 -12.0028 -12.0027  -9.7582  -9.7582  -7.6314  -7.0618
    -2.1404  -2.1404  -0.6658  -0.1541  -0.1541   0.1229   0.1229   0.4896

          k = 0.0000 0.1155 0.0000 ( 15072 PWs)   bands (ev):

   -16.1503 -12.6815 -12.0449 -11.4384  -9.8182  -9.6431  -7.4350  -6.9930
    -2.6512  -2.5741  -1.4988  -0.5424   0.0148   0.6001   0.6747   1.0124

          k = 0.0000 0.2309 0.0000 ( 15110 PWs)   bands (ev):

   -16.0179 -13.3020 -12.1433 -11.0137  -9.7899  -9.3333  -7.0126  -6.7887
    -3.5758  -3.3379  -2.5452  -1.0107  -0.1639   1.5204   1.7160   1.8820

          k = 0.0000 0.3464 0.0000 ( 15058 PWs)   bands (ev):

   -15.8062 -13.8769 -12.2474 -10.9280  -9.3992  -8.9092  -6.7004  -6.4569
    -4.4823  -3.9242  -3.5082  -1.3596  -0.3755   2.4745   2.8001   2.8918

          k = 0.0000 0.4619 0.0000 ( 15064 PWs)   bands (ev):

   -15.5450 -14.3619 -12.3214 -10.9854  -8.8513  -8.4909  -6.7765  -6.0312
    -5.1955  -4.3208  -4.0977  -1.5716  -0.5246   3.2381   3.5568   3.7361

          k = 0.0000-0.5774 0.0000 ( 15062 PWs)   bands (ev):

   -15.3798 -14.6026 -12.3477 -11.0165  -8.5534  -8.2949  -6.9525  -5.7349
    -5.4903  -4.7472  -4.0752  -1.6426  -0.5773   3.2861   3.7586   4.1618

          k = 0.1000 0.1732 0.0000 ( 15071 PWs)   bands (ev):

   -16.0616 -13.1317 -12.1461 -11.0446  -9.8845  -9.4028  -7.1309  -6.8564
    -3.3456  -3.1031  -2.2293  -1.1173   0.3054   1.1507   1.1509   1.5288

          k = 0.1000 0.2887 0.0000 ( 15064 PWs)   bands (ev):

   -15.8886 -13.6641 -12.3038 -10.7300  -9.7732  -8.9919  -6.7891  -6.5873
    -4.1524  -3.7453  -3.1098  -1.6363   0.3054   1.8430   1.8725   2.6933

          k = 0.1000 0.4041 0.0000 ( 15066 PWs)   bands (ev):

   -15.6457 -14.1697 -12.4378 -10.6958  -9.3079  -8.5411  -6.7864  -6.2010
    -4.7871  -4.1250  -3.9561  -1.9644   0.1629   2.5779   2.8418   3.3205

          k = 0.1000 0.5196 0.0000 ( 15070 PWs)   bands (ev):

   -15.3949 -14.5576 -12.5114 -10.7316  -8.8149  -8.2127  -7.1141  -5.7767
    -5.1957  -4.6216  -4.1291  -2.1237   0.0720   3.1099   3.4151   3.9122

          k = 0.2000 0.3464 0.0000 ( 15057 PWs)   bands (ev):

   -15.6808 -14.0794 -12.5470 -10.3128  -9.7338  -8.5339  -6.8270  -6.2598
    -4.5179  -4.1851  -3.7430  -2.2744   0.9587   1.9216   2.2398   3.2467

          k = 0.2000 0.4619 0.0000 ( 15045 PWs)   bands (ev):

   -15.4170 -14.4819 -12.7237 -10.1642  -9.3390  -8.1515  -7.2873  -5.8332
    -4.6932  -4.3931  -4.3180  -2.6439   1.1177   2.6129   2.6751   3.6008

          k = 0.2000 0.5774 0.0000 ( 15050 PWs)   bands (ev):

   -15.2317 -14.7161 -12.7856 -10.1589  -9.0094  -7.9955  -7.6377  -5.5120
    -4.8354  -4.7982  -4.2330  -2.7604   1.1116   2.8694   3.1793   3.4325

          k = 0.3000 0.5196 0.0000 ( 15037 PWs)   bands (ev):

   -15.1438 -14.7925 -12.9007  -9.6562  -9.3428  -7.9238  -7.8697  -5.3910
    -4.8454  -4.5194  -4.4104  -3.0265   2.0123   2.6381   2.7424   3.1098

     the Fermi energy is    -0.6094 ev

!    total energy              =     -49.98814549 Ry
     estimated scf accuracy    <       0.00000076 Ry
     smearing contrib. (-TS)   =       0.00042213 Ry
     internal energy E=F+TS    =     -49.98856762 Ry

     The total energy is F=E-TS. E is the sum of the following terms:
     one-electron contribution =    -179.33866406 Ry
     hartree contribution      =      94.23750121 Ry
     xc contribution           =     -23.21099914 Ry
     ewald contribution        =      58.32359438 Ry

     convergence has been achieved in   6 iterations

     Writing all to output data dir ../../outdir/borophene.save/

     init_run     :     20.18s CPU     12.12s WALL (       1 calls)
     electrons    :    218.91s CPU    152.63s WALL (       1 calls)

     Called by init_run:
     wfcinit      :     18.25s CPU     10.50s WALL (       1 calls)
     potinit      :      0.42s CPU      0.27s WALL (       1 calls)
     hinit0       :      1.21s CPU      1.03s WALL (       1 calls)

     Called by electrons:
     c_bands      :    179.57s CPU    139.21s WALL (       6 calls)
     sum_band     :     35.95s CPU     10.87s WALL (       6 calls)
     v_of_rho     :      2.59s CPU      1.46s WALL (       7 calls)
     newd         :      0.98s CPU      1.17s WALL (       7 calls)
     mix_rho      :      0.28s CPU      0.25s WALL (       6 calls)

     Called by c_bands:
     init_us_2    :      2.15s CPU     53.19s WALL (     182 calls)
     init_us_2:cp :      2.14s CPU     53.19s WALL (     182 calls)
     cegterg      :    175.36s CPU     84.59s WALL (      84 calls)

     Called by *egterg:
     cdiaghg      :      0.32s CPU      0.21s WALL (     335 calls)
     h_psi        :    170.61s CPU     79.79s WALL (     349 calls)
     s_psi        :      5.86s CPU      3.61s WALL (     349 calls)
     g_psi        :      0.61s CPU      0.59s WALL (     251 calls)

     Called by h_psi:
     h_psi:calbec :      7.95s CPU      5.30s WALL (     349 calls)
     vloc_psi     :    155.99s CPU     70.48s WALL (     349 calls)
     add_vuspsi   :      5.62s CPU      3.10s WALL (     349 calls)

     General routines
     calbec       :     10.51s CPU      7.00s WALL (     433 calls)
     fft          :      1.79s CPU      1.24s WALL (      77 calls)
     ffts         :      0.08s CPU      0.07s WALL (       6 calls)
     fftw         :    143.66s CPU     66.17s WALL (    9680 calls)

     Parallel routines

     PWSCF        :   3m59.31s CPU   2m45.25s WALL


   This run was terminated on:  12:26:24   3Jul2025            

=------------------------------------------------------------------------------=
   JOB DONE.
=------------------------------------------------------------------------------=
