
     Program PWSCF v.7.2 starts on  3Jul2025 at 11: 6: 4 

     This program is part of the open-source Quantum ESPRESSO suite
     for quantum simulation of materials; please cite
         "P. Giannozzi et al., J. Phys.:Condens. Matter 21 395502 (2009);
         "P. Giannozzi et al., J. Phys.:Condens. Matter 29 465901 (2017);
         "P. Giannozzi et al., J. Chem. Phys. 152 154105 (2020);
          URL http://www.quantum-espresso.org", 
     in publications or presentations arising from this work. More details at
     http://www.quantum-espresso.org/quote

     Parallel version (MPI & OpenMP), running on       2 processor cores
     Number of MPI processes:                 1
     Threads/MPI process:                     2

     MPI processes distributed on     1 nodes
     340 MiB available memory on the printing compute node when the environment starts

     Reading input from ../latticeparam/alpha_60_9.62.in

     Current dimensions of program PWSCF are:
     Max number of different atomic species (ntypx) = 10
     Max number of k-points (npk) =  40000
     Max angular momentum in pseudopotentials (lmaxx) =  4
     file B.pbesol-n-rrkjus_psl.1.0.0.UPF: wavefunction(s)  2S renormalized

     IMPORTANT: XC functional enforced from input :
     Exchange-correlation= PBESOL
                           (   1   4  10   8   0   0   0)
     Any further DFT definition will be discarded
     Please, verify this is what you really want


     Subspace diagonalization in iterative solution of the eigenvalue problem:
     a serial algorithm will be used


     G-vector sticks info
     --------------------
     sticks:   dense  smooth     PW     G-vecs:    dense   smooth      PW
     Sum        1531    1531    433                96977    96977   14199

     Using Slab Decomposition



     bravais-lattice index     =            4
     lattice parameter (alat)  =       9.6200  a.u.
     unit-cell volume          =    1542.0052 (a.u.)^3
     number of atoms/cell      =            8
     number of atomic types    =            1
     number of electrons       =        24.00
     number of Kohn-Sham states=           16
     kinetic-energy cutoff     =      60.0000  Ry
     charge density cutoff     =     240.0000  Ry
     scf convergence threshold =      1.0E-06
     mixing beta               =       0.7000
     number of iterations used =            8  plain     mixing
     Exchange-correlation= PBESOL
                           (   1   4  10   8   0   0   0)

     celldm(1)=   9.620000  celldm(2)=   0.000000  celldm(3)=   2.000000
     celldm(4)=   0.000000  celldm(5)=   0.000000  celldm(6)=   0.000000

     crystal axes: (cart. coord. in units of alat)
               a(1) = (   1.000000   0.000000   0.000000 )  
               a(2) = (  -0.500000   0.866025   0.000000 )  
               a(3) = (   0.000000   0.000000   2.000000 )  

     reciprocal axes: (cart. coord. in units 2 pi/alat)
               b(1) = (  1.000000  0.577350 -0.000000 )  
               b(2) = (  0.000000  1.154701  0.000000 )  
               b(3) = (  0.000000 -0.000000  0.500000 )  


     PseudoPot. # 1 for B  read from file:
     ../../pseudo/B.pbesol-n-rrkjus_psl.1.0.0.UPF
     MD5 check sum: a3839a09b1a4e02f2a06a66adc9253fc
     Pseudo is Ultrasoft + core correction, Zval =  3.0
     Generated using &quot;atomic&quot; code by A. Dal Corso  v.6.3MaX
     Using radial grid of 1059 points,  4 beta functions with: 
                l(1) =   0
                l(2) =   0
                l(3) =   1
                l(4) =   1
     Q(r) pseudized with 0 coefficients 


     atomic species   valence    mass     pseudopotential
        B              3.00    10.81100     B ( 1.00)

     24 Sym. Ops., with inversion, found



   Cartesian axes

     site n.     atom                  positions (alat units)
         1           B   tau(   1) = (   0.3333330   0.0000000   0.0000000  )
         2           B   tau(   2) = (   0.6666670   0.0000000   0.0000000  )
         3           B   tau(   3) = (  -0.1666665   0.2886748   0.0000000  )
         4           B   tau(   4) = (   0.1666665   0.2886748   0.0000000  )
         5           B   tau(   5) = (   0.5000005   0.2886748   0.0000000  )
         6           B   tau(   6) = (  -0.3333335   0.5773506   0.0000000  )
         7           B   tau(   7) = (  -0.0000005   0.5773506   0.0000000  )
         8           B   tau(   8) = (   0.3333335   0.5773506   0.0000000  )

     number of k points=    12  Marzari-Vanderbilt smearing, width (Ry)=  0.0350
                       cart. coord. in units 2pi/alat
        k(    1) = (   0.0000000   0.0000000   0.0000000), wk =   0.0246914
        k(    2) = (   0.0000000   0.1283001   0.0000000), wk =   0.1481481
        k(    3) = (   0.0000000   0.2566001   0.0000000), wk =   0.1481481
        k(    4) = (   0.0000000   0.3849002   0.0000000), wk =   0.1481481
        k(    5) = (   0.0000000   0.5132002   0.0000000), wk =   0.1481481
        k(    6) = (   0.1111111   0.1924501   0.0000000), wk =   0.1481481
        k(    7) = (   0.1111111   0.3207501   0.0000000), wk =   0.2962963
        k(    8) = (   0.1111111   0.4490502   0.0000000), wk =   0.2962963
        k(    9) = (   0.1111111   0.5773503   0.0000000), wk =   0.1481481
        k(   10) = (   0.2222222   0.3849002   0.0000000), wk =   0.1481481
        k(   11) = (   0.2222222   0.5132002   0.0000000), wk =   0.2962963
        k(   12) = (   0.3333333   0.5773503   0.0000000), wk =   0.0493827

     Dense  grid:    96977 G-vectors     FFT dimensions: (  48,  48,  96)

     Estimated max dynamical RAM per process >     181.56 MB

     Check: negative core charge=   -0.000002

     Initial potential from superposition of free atoms

     starting charge      23.9977, renormalised to      24.0000

     negative rho (up, down):  5.132E-08 0.000E+00
     Starting wfcs are   32 randomized atomic wfcs

     total cpu time spent up to now is       -7.0 secs

     per-process dynamical memory:   105.4 Mb

     Self-consistent Calculation

     iteration #  1     ecut=    60.00 Ry     beta= 0.70
     Davidson diagonalization with overlap
     ethr =  1.00E-02,  avg # of iterations =  2.0

     negative rho (up, down):  7.561E-05 0.000E+00

     total cpu time spent up to now is        4.7 secs

     total energy              =     -49.87349475 Ry
     estimated scf accuracy    <       0.66444734 Ry

     iteration #  2     ecut=    60.00 Ry     beta= 0.70
     Davidson diagonalization with overlap
     ethr =  2.77E-03,  avg # of iterations =  2.0

     negative rho (up, down):  2.005E-04 0.000E+00

     total cpu time spent up to now is       16.5 secs

     total energy              =     -49.98169336 Ry
     estimated scf accuracy    <       0.01701340 Ry

     iteration #  3     ecut=    60.00 Ry     beta= 0.70
     Davidson diagonalization with overlap
     ethr =  7.09E-05,  avg # of iterations =  3.3

     negative rho (up, down):  2.511E-04 0.000E+00

     total cpu time spent up to now is       17.0 secs

     total energy              =     -49.98601882 Ry
     estimated scf accuracy    <       0.00452564 Ry

     iteration #  4     ecut=    60.00 Ry     beta= 0.70
     Davidson diagonalization with overlap
     ethr =  1.89E-05,  avg # of iterations =  4.2

     negative rho (up, down):  3.091E-04 0.000E+00

     total cpu time spent up to now is       30.9 secs

     total energy              =     -49.98700339 Ry
     estimated scf accuracy    <       0.00016530 Ry

     iteration #  5     ecut=    60.00 Ry     beta= 0.70
     Davidson diagonalization with overlap
     ethr =  6.89E-07,  avg # of iterations =  5.9

     negative rho (up, down):  3.133E-04 0.000E+00

     total cpu time spent up to now is       46.9 secs

     total energy              =     -49.98702351 Ry
     estimated scf accuracy    <       0.00001438 Ry

     iteration #  6     ecut=    60.00 Ry     beta= 0.70
     Davidson diagonalization with overlap
     ethr =  5.99E-08,  avg # of iterations =  2.6

     negative rho (up, down):  3.134E-04 0.000E+00

     total cpu time spent up to now is       59.1 secs

     End of self-consistent calculation

          k = 0.0000 0.0000 0.0000 ( 12101 PWs)   bands (ev):

   -16.1776 -12.0837 -12.0008 -12.0008  -9.7776  -9.7776  -7.6384  -7.0483
    -2.2003  -2.2003  -0.7135  -0.2036  -0.2036   0.0380   0.0380   0.4326

          k = 0.0000 0.1283 0.0000 ( 12117 PWs)   bands (ev):

   -16.1226 -12.7487 -12.0526 -11.3801  -9.8425  -9.6360  -7.4032  -6.9642
    -2.8038  -2.7125  -1.6536  -0.6442  -0.0491   0.6012   0.6893   1.0374

          k = 0.0000 0.2566 0.0000 ( 12089 PWs)   bands (ev):

   -15.9608 -13.4294 -12.1671 -10.9729  -9.7443  -9.2637  -6.9331  -6.7150
    -3.8379  -3.5490  -2.7947  -1.1406  -0.2616   1.6318   1.8574   2.0231

          k = 0.0000 0.3849 0.0000 ( 12074 PWs)   bands (ev):

   -15.7067 -14.0442 -12.2768 -10.9506  -9.2240  -8.7780  -6.6936  -6.3153
    -4.7991  -4.0785  -3.8163  -1.4835  -0.4799   2.6442   3.0185   3.1693

          k = 0.0000 0.5132 0.0000 ( 12108 PWs)   bands (ev):

   -15.4272 -14.5085 -12.3401 -11.0127  -8.6648  -8.3755  -6.8977  -5.8471
    -5.4425  -4.6012  -4.1356  -1.6567  -0.6045   3.1800   3.5619   3.8941

          k = 0.1111 0.1925 0.0000 ( 12090 PWs)   bands (ev):

   -16.0141 -13.2418 -12.1798 -10.9562  -9.9040  -9.3392  -7.0588  -6.7974
    -3.5837  -3.2977  -2.4454  -1.2930   0.3024   1.1730   1.1970   1.6770

          k = 0.1111 0.3208 0.0000 ( 12083 PWs)   bands (ev):

   -15.8040 -13.8166 -12.3654 -10.6641  -9.7061  -8.8553  -6.7543  -6.4707
    -4.4110  -3.9603  -3.3885  -1.8410   0.3063   1.9478   1.9648   2.9833

          k = 0.1111 0.4491 0.0000 ( 12116 PWs)   bands (ev):

   -15.5197 -14.3411 -12.5025 -10.6650  -9.1381  -8.3771  -6.9491  -6.0143
    -4.9964  -4.2640  -4.2135  -2.1491   0.1721   2.6384   3.0954   3.5307

          k = 0.1111 0.5774 0.0000 ( 12100 PWs)   bands (ev):

   -15.3210 -14.6230 -12.5514 -10.6895  -8.7639  -8.1547  -7.2543  -5.6659
    -5.2570  -4.7583  -4.1705  -2.2489   0.1171   3.0538   3.1054   4.0601

          k = 0.2222 0.3849 0.0000 ( 12112 PWs)   bands (ev):

   -15.5549 -14.2516 -12.6433 -10.1774  -9.6512  -8.3571  -7.0159  -6.0772
    -4.5915  -4.3829  -4.0396  -2.5159   1.0944   2.0352   2.2578   3.4528

          k = 0.2222 0.5132 0.0000 ( 12121 PWs)   bands (ev):

   -15.2607 -14.6476 -12.8071 -10.0349  -9.2118  -8.0228  -7.6128  -5.5955
    -4.7500  -4.6775  -4.3501  -2.8452   1.2873   2.5802   2.8677   3.1464

          k = 0.3333 0.5774 0.0000 ( 12162 PWs)   bands (ev):

   -14.9591 -14.9591 -12.9302  -9.4491  -9.4491  -8.0283  -7.8946  -5.1214
    -5.1213  -4.4960  -4.4960  -3.1153   2.3713   2.3713   2.7307   2.7307

     the Fermi energy is    -0.6563 ev

!    total energy              =     -49.98702746 Ry
     estimated scf accuracy    <       0.00000088 Ry
     smearing contrib. (-TS)   =       0.00025471 Ry
     internal energy E=F+TS    =     -49.98728217 Ry

     The total energy is F=E-TS. E is the sum of the following terms:
     one-electron contribution =    -178.87351793 Ry
     hartree contribution      =      93.95523552 Ry
     xc contribution           =     -23.15008439 Ry
     ewald contribution        =      58.08108462 Ry

     convergence has been achieved in   6 iterations

     Writing all to output data dir ../../outdir/borophene.save/

     init_run     :      9.71s CPU     -7.10s WALL (       1 calls)
     electrons    :    113.00s CPU     66.07s WALL (       1 calls)

     Called by init_run:
     wfcinit      :      8.45s CPU     -8.25s WALL (       1 calls)
     potinit      :      0.21s CPU      0.13s WALL (       1 calls)
     hinit0       :      0.91s CPU      0.83s WALL (       1 calls)

     Called by electrons:
     c_bands      :     92.19s CPU     63.43s WALL (       6 calls)
     sum_band     :     19.16s CPU      1.34s WALL (       6 calls)
     v_of_rho     :      1.22s CPU      0.77s WALL (       7 calls)
     newd         :      0.49s CPU      0.58s WALL (       7 calls)
     mix_rho      :      0.14s CPU      0.11s WALL (       6 calls)

     Called by c_bands:
     init_us_2    :      1.00s CPU      0.80s WALL (     156 calls)
     init_us_2:cp :      1.00s CPU      0.80s WALL (     156 calls)
     cegterg      :     90.16s CPU     61.84s WALL (      72 calls)

     Called by *egterg:
     cdiaghg      :      0.21s CPU      0.13s WALL (     312 calls)
     h_psi        :     86.99s CPU     45.75s WALL (     324 calls)
     s_psi        :      2.83s CPU      1.74s WALL (     324 calls)
     g_psi        :      0.43s CPU      0.39s WALL (     240 calls)

     Called by h_psi:
     h_psi:calbec :      4.00s CPU      2.55s WALL (     324 calls)
     vloc_psi     :     79.82s CPU     41.22s WALL (     324 calls)
     add_vuspsi   :      2.64s CPU      1.47s WALL (     324 calls)

     General routines
     calbec       :      5.20s CPU      3.38s WALL (     396 calls)
     fft          :      1.08s CPU      0.89s WALL (      77 calls)
     ffts         :      0.02s CPU      0.02s WALL (       6 calls)
     fftw         :     81.38s CPU     32.06s WALL (    8328 calls)

     Parallel routines

     PWSCF        :   2m 2.90s CPU     59.24s WALL


   This run was terminated on:  11: 7: 3   3Jul2025            

=------------------------------------------------------------------------------=
   JOB DONE.
=------------------------------------------------------------------------------=
