
     Program PWSCF v.7.2 starts on  2Jul2025 at 11:59:14 

     This program is part of the open-source Quantum ESPRESSO suite
     for quantum simulation of materials; please cite
         "P. Giannozzi et al., J. Phys.:Condens. Matter 21 395502 (2009);
         "P. Giannozzi et al., J. Phys.:Condens. Matter 29 465901 (2017);
         "P. Giannozzi et al., J. Chem. Phys. 152 154105 (2020);
          URL http://www.quantum-espresso.org", 
     in publications or presentations arising from this work. More details at
     http://www.quantum-espresso.org/quote

     Parallel version (MPI & OpenMP), running on       2 processor cores
     Number of MPI processes:                 1
     Threads/MPI process:                     2

     MPI processes distributed on     1 nodes
     382 MiB available memory on the printing compute node when the environment starts

     Reading input from ../latticeparam/alpha_9.8.in

     Current dimensions of program PWSCF are:
     Max number of different atomic species (ntypx) = 10
     Max number of k-points (npk) =  40000
     Max angular momentum in pseudopotentials (lmaxx) =  4
     file B.pbesol-n-rrkjus_psl.1.0.0.UPF: wavefunction(s)  2S renormalized

     IMPORTANT: XC functional enforced from input :
     Exchange-correlation= PBESOL
                           (   1   4  10   8   0   0   0)
     Any further DFT definition will be discarded
     Please, verify this is what you really want


     Subspace diagonalization in iterative solution of the eigenvalue problem:
     a serial algorithm will be used


     G-vector sticks info
     --------------------
     sticks:   dense  smooth     PW     G-vecs:    dense   smooth      PW
     Sum        1843    1843    511               128607   128607   18817

     Using Slab Decomposition



     bravais-lattice index     =            4
     lattice parameter (alat)  =       9.8000  a.u.
     unit-cell volume          =    1630.1924 (a.u.)^3
     number of atoms/cell      =            8
     number of atomic types    =            1
     number of electrons       =        24.00
     number of Kohn-Sham states=           16
     kinetic-energy cutoff     =      70.0000  Ry
     charge density cutoff     =     280.0000  Ry
     scf convergence threshold =      1.0E-06
     mixing beta               =       0.7000
     number of iterations used =            8  plain     mixing
     Exchange-correlation= PBESOL
                           (   1   4  10   8   0   0   0)

     celldm(1)=   9.800000  celldm(2)=   0.000000  celldm(3)=   2.000000
     celldm(4)=   0.000000  celldm(5)=   0.000000  celldm(6)=   0.000000

     crystal axes: (cart. coord. in units of alat)
               a(1) = (   1.000000   0.000000   0.000000 )  
               a(2) = (  -0.500000   0.866025   0.000000 )  
               a(3) = (   0.000000   0.000000   2.000000 )  

     reciprocal axes: (cart. coord. in units 2 pi/alat)
               b(1) = (  1.000000  0.577350 -0.000000 )  
               b(2) = (  0.000000  1.154701  0.000000 )  
               b(3) = (  0.000000 -0.000000  0.500000 )  


     PseudoPot. # 1 for B  read from file:
     ../../pseudo/B.pbesol-n-rrkjus_psl.1.0.0.UPF
     MD5 check sum: a3839a09b1a4e02f2a06a66adc9253fc
     Pseudo is Ultrasoft + core correction, Zval =  3.0
     Generated using &quot;atomic&quot; code by A. Dal Corso  v.6.3MaX
     Using radial grid of 1059 points,  4 beta functions with: 
                l(1) =   0
                l(2) =   0
                l(3) =   1
                l(4) =   1
     Q(r) pseudized with 0 coefficients 


     atomic species   valence    mass     pseudopotential
        B              3.00    10.81100     B ( 1.00)

     24 Sym. Ops., with inversion, found



   Cartesian axes

     site n.     atom                  positions (alat units)
         1           B   tau(   1) = (   0.3333330   0.0000000   0.0000000  )
         2           B   tau(   2) = (   0.6666670   0.0000000   0.0000000  )
         3           B   tau(   3) = (  -0.1666665   0.2886748   0.0000000  )
         4           B   tau(   4) = (   0.1666665   0.2886748   0.0000000  )
         5           B   tau(   5) = (   0.5000005   0.2886748   0.0000000  )
         6           B   tau(   6) = (  -0.3333335   0.5773506   0.0000000  )
         7           B   tau(   7) = (  -0.0000005   0.5773506   0.0000000  )
         8           B   tau(   8) = (   0.3333335   0.5773506   0.0000000  )

     number of k points=    12  Marzari-Vanderbilt smearing, width (Ry)=  0.0350
                       cart. coord. in units 2pi/alat
        k(    1) = (   0.0000000   0.0000000   0.0000000), wk =   0.0246914
        k(    2) = (   0.0000000   0.1283001   0.0000000), wk =   0.1481481
        k(    3) = (   0.0000000   0.2566001   0.0000000), wk =   0.1481481
        k(    4) = (   0.0000000   0.3849002   0.0000000), wk =   0.1481481
        k(    5) = (   0.0000000   0.5132002   0.0000000), wk =   0.1481481
        k(    6) = (   0.1111111   0.1924501   0.0000000), wk =   0.1481481
        k(    7) = (   0.1111111   0.3207501   0.0000000), wk =   0.2962963
        k(    8) = (   0.1111111   0.4490502   0.0000000), wk =   0.2962963
        k(    9) = (   0.1111111   0.5773503   0.0000000), wk =   0.1481481
        k(   10) = (   0.2222222   0.3849002   0.0000000), wk =   0.1481481
        k(   11) = (   0.2222222   0.5132002   0.0000000), wk =   0.2962963
        k(   12) = (   0.3333333   0.5773503   0.0000000), wk =   0.0493827

     Dense  grid:   128607 G-vectors     FFT dimensions: (  54,  54, 108)

     Estimated max dynamical RAM per process >     242.48 MB

     Initial potential from superposition of free atoms

     starting charge      23.9977, renormalised to      24.0000

     negative rho (up, down):  7.593E-05 0.000E+00
     Starting wfcs are   32 randomized atomic wfcs

     total cpu time spent up to now is       -3.7 secs

     per-process dynamical memory:   139.6 Mb

     Self-consistent Calculation

     iteration #  1     ecut=    70.00 Ry     beta= 0.70
     Davidson diagonalization with overlap
     ethr =  1.00E-02,  avg # of iterations =  2.0

     negative rho (up, down):  3.717E-04 0.000E+00

     total cpu time spent up to now is       11.3 secs

     total energy              =     -49.87885028 Ry
     estimated scf accuracy    <       0.56384112 Ry

     iteration #  2     ecut=    70.00 Ry     beta= 0.70
     Davidson diagonalization with overlap
     ethr =  2.35E-03,  avg # of iterations =  2.0

     negative rho (up, down):  6.092E-04 0.000E+00

     total cpu time spent up to now is       73.7 secs

     total energy              =     -49.96992622 Ry
     estimated scf accuracy    <       0.01359733 Ry

     iteration #  3     ecut=    70.00 Ry     beta= 0.70
     Davidson diagonalization with overlap
     ethr =  5.67E-05,  avg # of iterations =  3.2

     negative rho (up, down):  6.905E-04 0.000E+00

     total cpu time spent up to now is       89.3 secs

     total energy              =     -49.97324090 Ry
     estimated scf accuracy    <       0.00387329 Ry

     iteration #  4     ecut=    70.00 Ry     beta= 0.70
     Davidson diagonalization with overlap
     ethr =  1.61E-05,  avg # of iterations =  2.8

     negative rho (up, down):  7.748E-04 0.000E+00

     total cpu time spent up to now is       90.4 secs

     total energy              =     -49.97408971 Ry
     estimated scf accuracy    <       0.00015386 Ry

     iteration #  5     ecut=    70.00 Ry     beta= 0.70
     Davidson diagonalization with overlap
     ethr =  6.41E-07,  avg # of iterations =  4.7

     negative rho (up, down):  7.826E-04 0.000E+00

     total cpu time spent up to now is      105.9 secs

     total energy              =     -49.97410684 Ry
     estimated scf accuracy    <       0.00001396 Ry

     iteration #  6     ecut=    70.00 Ry     beta= 0.70
     Davidson diagonalization with overlap
     ethr =  5.81E-08,  avg # of iterations =  2.8

     negative rho (up, down):  7.832E-04 0.000E+00

     total cpu time spent up to now is      108.6 secs

     End of self-consistent calculation

          k = 0.0000 0.0000 0.0000 ( 16043 PWs)   bands (ev):

   -16.0918 -12.0767 -11.9847 -11.9847  -9.8570  -9.8570  -7.6693  -6.9898
    -2.4578  -2.4578  -0.9200  -0.4214  -0.4214  -0.3280  -0.3279   0.1807

          k = 0.0000 0.1283 0.0000 ( 16079 PWs)   bands (ev):

   -16.0381 -12.7272 -12.0389 -11.3808  -9.9075  -9.7133  -7.4445  -6.9091
    -3.0493  -2.9576  -1.8157  -0.8453  -0.2780   0.2082   0.2998   0.7612

          k = 0.0000 0.2566 0.0000 ( 16105 PWs)   bands (ev):

   -15.8801 -13.3973 -12.1577 -10.9919  -9.7817  -9.3371  -6.9860  -6.6700
    -4.0618  -3.7773  -2.9083  -1.3213  -0.4753   1.1767   1.4110   1.7034

          k = 0.0000 0.3849 0.0000 ( 16108 PWs)   bands (ev):

   -15.6317 -14.0014 -12.2705 -10.9751  -9.2512  -8.8467  -6.7475  -6.2866
    -5.0081  -4.2977  -3.8872  -1.6500  -0.6796   2.1059   2.4979   2.7970

          k = 0.0000 0.5132 0.0000 ( 16098 PWs)   bands (ev):

   -15.3587 -14.4567 -12.3353 -11.0351  -8.6926  -8.4370  -6.9560  -5.8384
    -5.6486  -4.6388  -4.3429  -1.8161  -0.7967   2.5078   2.9711   3.2976

          k = 0.1111 0.1925 0.0000 ( 16101 PWs)   bands (ev):

   -15.9321 -13.2127 -12.1691 -10.9689  -9.9542  -9.4093  -7.1098  -6.7491
    -3.8182  -3.5237  -2.5745  -1.4642   0.0554   0.7554   0.9014   1.2528

          k = 0.1111 0.3208 0.0000 ( 16098 PWs)   bands (ev):

   -15.7268 -13.7781 -12.3563 -10.6914  -9.7431  -8.9157  -6.8088  -6.4357
    -4.6315  -4.1723  -3.4782  -1.9878   0.0646   1.4330   1.6568   2.4995

          k = 0.1111 0.4491 0.0000 ( 16133 PWs)   bands (ev):

   -15.4490 -14.2931 -12.4933 -10.6945  -9.1778  -8.4276  -7.0111  -5.9982
    -5.1964  -4.4208  -4.3170  -2.2827  -0.0596   2.0432   2.7317   2.9159

          k = 0.1111 0.5774 0.0000 ( 16141 PWs)   bands (ev):

   -15.2549 -14.5692 -12.5420 -10.7183  -8.8068  -8.1988  -7.3219  -5.6649
    -5.4530  -4.7898  -4.3711  -2.3782  -0.1111   2.4249   2.4253   3.6413

          k = 0.2222 0.3849 0.0000 ( 16167 PWs)   bands (ev):

   -15.4833 -14.2056 -12.6306 -10.2166  -9.6888  -8.4043  -7.0785  -6.0583
    -4.7989  -4.5794  -4.1035  -2.6314   0.8132   1.6701   1.7300   3.1797

          k = 0.2222 0.5132 0.0000 ( 16151 PWs)   bands (ev):

   -15.1956 -14.5943 -12.7915 -10.0765  -9.2586  -8.0605  -7.6787  -5.5968
    -4.9415  -4.7150  -4.5442  -2.9459   1.0025   1.9363   2.4626   2.5137

          k = 0.3333 0.5774 0.0000 ( 16167 PWs)   bands (ev):

   -14.9001 -14.9001 -12.9118  -9.4994  -9.4993  -8.0882  -7.9278  -5.1420
    -5.1420  -4.6856  -4.6856  -3.2031   2.0333   2.0334   2.0595   2.0595

     the Fermi energy is    -0.8615 ev

!    total energy              =     -49.97411068 Ry
     estimated scf accuracy    <       0.00000069 Ry
     smearing contrib. (-TS)   =       0.00046791 Ry
     internal energy E=F+TS    =     -49.97457858 Ry

     The total energy is F=E-TS. E is the sum of the following terms:
     one-electron contribution =    -176.82174012 Ry
     hartree contribution      =      92.70720328 Ry
     xc contribution           =     -22.87433094 Ry
     ewald contribution        =      57.01428920 Ry

     convergence has been achieved in   6 iterations

     Writing all to output data dir ../../outdir/borophene.save/

     init_run     :     12.40s CPU     -3.81s WALL (       1 calls)
     electrons    :    117.25s CPU    112.38s WALL (       1 calls)

     Called by init_run:
     wfcinit      :     11.06s CPU     -4.96s WALL (       1 calls)
     potinit      :      0.26s CPU      0.17s WALL (       1 calls)
     hinit0       :      0.87s CPU      0.73s WALL (       1 calls)

     Called by electrons:
     c_bands      :     95.45s CPU    117.35s WALL (       6 calls)
     sum_band     :     20.07s CPU     -6.50s WALL (       6 calls)
     v_of_rho     :      1.28s CPU      0.91s WALL (       7 calls)
     newd         :      0.57s CPU      0.69s WALL (       7 calls)
     mix_rho      :      0.15s CPU      0.14s WALL (       6 calls)

     Called by c_bands:
     init_us_2    :      1.00s CPU      1.00s WALL (     156 calls)
     init_us_2:cp :      1.00s CPU      1.00s WALL (     156 calls)
     cegterg      :     93.48s CPU    115.66s WALL (      72 calls)

     Called by *egterg:
     cdiaghg      :      0.16s CPU      0.11s WALL (     280 calls)
     h_psi        :     93.97s CPU    103.46s WALL (     292 calls)
     s_psi        :      2.58s CPU      1.66s WALL (     292 calls)
     g_psi        :      0.24s CPU      0.26s WALL (     208 calls)

     Called by h_psi:
     h_psi:calbec :      3.52s CPU      2.81s WALL (     292 calls)
     vloc_psi     :     87.54s CPU     98.84s WALL (     292 calls)
     add_vuspsi   :      2.55s CPU      1.44s WALL (     292 calls)

     General routines
     calbec       :      4.49s CPU      3.62s WALL (     364 calls)
     fft          :      1.04s CPU      0.83s WALL (      77 calls)
     ffts         :      0.04s CPU      0.03s WALL (       6 calls)
     fftw         :     87.08s CPU     88.68s WALL (    8270 calls)

     Parallel routines

     PWSCF        :   2m 9.78s CPU   1m48.85s WALL


   This run was terminated on:  12: 1: 3   2Jul2025            

=------------------------------------------------------------------------------=
   JOB DONE.
=------------------------------------------------------------------------------=
