
     Program PWSCF v.7.2 starts on  3Jul2025 at 11:20:10 

     This program is part of the open-source Quantum ESPRESSO suite
     for quantum simulation of materials; please cite
         "P. Giannozzi et al., J. Phys.:Condens. Matter 21 395502 (2009);
         "P. Giannozzi et al., J. Phys.:Condens. Matter 29 465901 (2017);
         "P. Giannozzi et al., J. Chem. Phys. 152 154105 (2020);
          URL http://www.quantum-espresso.org", 
     in publications or presentations arising from this work. More details at
     http://www.quantum-espresso.org/quote

     Parallel version (MPI & OpenMP), running on       2 processor cores
     Number of MPI processes:                 1
     Threads/MPI process:                     2

     MPI processes distributed on     1 nodes
     382 MiB available memory on the printing compute node when the environment starts

     Reading input from ../latticeparam/alpha_80_9.52.in

     Current dimensions of program PWSCF are:
     Max number of different atomic species (ntypx) = 10
     Max number of k-points (npk) =  40000
     Max angular momentum in pseudopotentials (lmaxx) =  4
     file B.pbesol-n-rrkjus_psl.1.0.0.UPF: wavefunction(s)  2S renormalized

     IMPORTANT: XC functional enforced from input :
     Exchange-correlation= PBESOL
                           (   1   4  10   8   0   0   0)
     Any further DFT definition will be discarded
     Please, verify this is what you really want


     Subspace diagonalization in iterative solution of the eigenvalue problem:
     a serial algorithm will be used


     G-vector sticks info
     --------------------
     sticks:   dense  smooth     PW     G-vecs:    dense   smooth      PW
     Sum        1993    1993    559               144457   144457   20835

     Using Slab Decomposition



     bravais-lattice index     =            4
     lattice parameter (alat)  =       9.5200  a.u.
     unit-cell volume          =    1494.4159 (a.u.)^3
     number of atoms/cell      =            8
     number of atomic types    =            1
     number of electrons       =        24.00
     number of Kohn-Sham states=           16
     kinetic-energy cutoff     =      80.0000  Ry
     charge density cutoff     =     320.0000  Ry
     scf convergence threshold =      1.0E-06
     mixing beta               =       0.7000
     number of iterations used =            8  plain     mixing
     Exchange-correlation= PBESOL
                           (   1   4  10   8   0   0   0)

     celldm(1)=   9.520000  celldm(2)=   0.000000  celldm(3)=   2.000000
     celldm(4)=   0.000000  celldm(5)=   0.000000  celldm(6)=   0.000000

     crystal axes: (cart. coord. in units of alat)
               a(1) = (   1.000000   0.000000   0.000000 )  
               a(2) = (  -0.500000   0.866025   0.000000 )  
               a(3) = (   0.000000   0.000000   2.000000 )  

     reciprocal axes: (cart. coord. in units 2 pi/alat)
               b(1) = (  1.000000  0.577350 -0.000000 )  
               b(2) = (  0.000000  1.154701  0.000000 )  
               b(3) = (  0.000000 -0.000000  0.500000 )  


     PseudoPot. # 1 for B  read from file:
     ../../pseudo/B.pbesol-n-rrkjus_psl.1.0.0.UPF
     MD5 check sum: a3839a09b1a4e02f2a06a66adc9253fc
     Pseudo is Ultrasoft + core correction, Zval =  3.0
     Generated using &quot;atomic&quot; code by A. Dal Corso  v.6.3MaX
     Using radial grid of 1059 points,  4 beta functions with: 
                l(1) =   0
                l(2) =   0
                l(3) =   1
                l(4) =   1
     Q(r) pseudized with 0 coefficients 


     atomic species   valence    mass     pseudopotential
        B              3.00    10.81100     B ( 1.00)

     24 Sym. Ops., with inversion, found



   Cartesian axes

     site n.     atom                  positions (alat units)
         1           B   tau(   1) = (   0.3333330   0.0000000   0.0000000  )
         2           B   tau(   2) = (   0.6666670   0.0000000   0.0000000  )
         3           B   tau(   3) = (  -0.1666665   0.2886748   0.0000000  )
         4           B   tau(   4) = (   0.1666665   0.2886748   0.0000000  )
         5           B   tau(   5) = (   0.5000005   0.2886748   0.0000000  )
         6           B   tau(   6) = (  -0.3333335   0.5773506   0.0000000  )
         7           B   tau(   7) = (  -0.0000005   0.5773506   0.0000000  )
         8           B   tau(   8) = (   0.3333335   0.5773506   0.0000000  )

     number of k points=    12  Marzari-Vanderbilt smearing, width (Ry)=  0.0350
                       cart. coord. in units 2pi/alat
        k(    1) = (   0.0000000   0.0000000   0.0000000), wk =   0.0246914
        k(    2) = (   0.0000000   0.1283001   0.0000000), wk =   0.1481481
        k(    3) = (   0.0000000   0.2566001   0.0000000), wk =   0.1481481
        k(    4) = (   0.0000000   0.3849002   0.0000000), wk =   0.1481481
        k(    5) = (   0.0000000   0.5132002   0.0000000), wk =   0.1481481
        k(    6) = (   0.1111111   0.1924501   0.0000000), wk =   0.1481481
        k(    7) = (   0.1111111   0.3207501   0.0000000), wk =   0.2962963
        k(    8) = (   0.1111111   0.4490502   0.0000000), wk =   0.2962963
        k(    9) = (   0.1111111   0.5773503   0.0000000), wk =   0.1481481
        k(   10) = (   0.2222222   0.3849002   0.0000000), wk =   0.1481481
        k(   11) = (   0.2222222   0.5132002   0.0000000), wk =   0.2962963
        k(   12) = (   0.3333333   0.5773503   0.0000000), wk =   0.0493827

     Dense  grid:   144457 G-vectors     FFT dimensions: (  60,  60, 120)

     Estimated max dynamical RAM per process >     277.50 MB

     Check: negative core charge=   -0.000001

     Initial potential from superposition of free atoms

     starting charge      23.9977, renormalised to      24.0000

     negative rho (up, down):  3.051E-06 0.000E+00
     Starting wfcs are   32 randomized atomic wfcs

     total cpu time spent up to now is       -3.6 secs

     per-process dynamical memory:   160.4 Mb

     Self-consistent Calculation

     iteration #  1     ecut=    80.00 Ry     beta= 0.70
     Davidson diagonalization with overlap
     ethr =  1.00E-02,  avg # of iterations =  2.0

     negative rho (up, down):  1.609E-04 0.000E+00

     total cpu time spent up to now is       11.5 secs

     total energy              =     -49.86257400 Ry
     estimated scf accuracy    <       0.72598467 Ry

     iteration #  2     ecut=    80.00 Ry     beta= 0.70
     Davidson diagonalization with overlap
     ethr =  3.02E-03,  avg # of iterations =  2.0

     negative rho (up, down):  3.400E-04 0.000E+00

     total cpu time spent up to now is       79.8 secs

     total energy              =     -49.98100643 Ry
     estimated scf accuracy    <       0.01901645 Ry

     iteration #  3     ecut=    80.00 Ry     beta= 0.70
     Davidson diagonalization with overlap
     ethr =  7.92E-05,  avg # of iterations =  5.2

     negative rho (up, down):  4.125E-04 0.000E+00

     total cpu time spent up to now is       90.2 secs

     total energy              =     -49.98593271 Ry
     estimated scf accuracy    <       0.00489398 Ry

     iteration #  4     ecut=    80.00 Ry     beta= 0.70
     Davidson diagonalization with overlap
     ethr =  2.04E-05,  avg # of iterations =  3.9

     negative rho (up, down):  4.921E-04 0.000E+00

     total cpu time spent up to now is      105.8 secs

     total energy              =     -49.98700077 Ry
     estimated scf accuracy    <       0.00016976 Ry

     iteration #  5     ecut=    80.00 Ry     beta= 0.70
     Davidson diagonalization with overlap
     ethr =  7.07E-07,  avg # of iterations =  5.2

     negative rho (up, down):  4.985E-04 0.000E+00

     total cpu time spent up to now is      113.5 secs

     total energy              =     -49.98702113 Ry
     estimated scf accuracy    <       0.00001676 Ry

     iteration #  6     ecut=    80.00 Ry     beta= 0.70
     Davidson diagonalization with overlap
     ethr =  6.98E-08,  avg # of iterations =  2.6

     negative rho (up, down):  4.986E-04 0.000E+00

     total cpu time spent up to now is      128.3 secs

     End of self-consistent calculation

          k = 0.0000 0.0000 0.0000 ( 18037 PWs)   bands (ev):

   -16.2211 -12.0835 -12.0060 -12.0060  -9.7280  -9.7279  -7.6193  -7.0819
    -2.0482  -2.0482  -0.5939  -0.0776  -0.0775   0.2525   0.2525   0.5783

          k = 0.0000 0.1283 0.0000 ( 18095 PWs)   bands (ev):

   -16.1654 -12.7567 -12.0564 -11.3759  -9.8015  -9.5876  -7.3778  -6.9959
    -2.6587  -2.5677  -1.5597  -0.5278   0.0834   0.8311   0.9174   1.1973

          k = 0.0000 0.2566 0.0000 ( 18089 PWs)   bands (ev):

   -16.0016 -13.4431 -12.1683 -10.9585  -9.7194  -9.2177  -6.9006  -6.7409
    -3.7053  -3.4142  -2.7288  -1.0359  -0.1381   1.8965   2.1180   2.2079

          k = 0.0000 0.3849 0.0000 ( 18042 PWs)   bands (ev):

   -15.7442 -14.0638 -12.2761 -10.9329  -9.2052  -8.7350  -6.6602  -6.3316
    -4.6751  -3.9495  -3.7751  -1.3870  -0.3645   2.9519   3.3214   3.3845

          k = 0.0000 0.5132 0.0000 ( 18058 PWs)   bands (ev):

   -15.4610 -14.5331 -12.3385 -10.9962  -8.6457  -8.3368  -6.8620  -5.8520
    -5.3204  -4.5793  -4.0134  -1.5644  -0.4935   3.5629   3.8634   3.9806

          k = 0.1111 0.1925 0.0000 ( 18127 PWs)   bands (ev):

   -16.0555 -13.2538 -12.1818 -10.9453  -9.8718  -9.2949  -7.0275  -6.8252
    -3.4452  -3.1639  -2.3706  -1.1939   0.4454   1.3298   1.4541   1.9251

          k = 0.1111 0.3208 0.0000 ( 18048 PWs)   bands (ev):

   -15.8427 -13.8339 -12.3665 -10.6449  -9.6817  -8.8169  -6.7207  -6.4908
    -4.2808  -3.8347  -3.3364  -1.7560   0.4461   2.1425   2.2458   3.0866

          k = 0.1111 0.4491 0.0000 ( 18036 PWs)   bands (ev):

   -15.5548 -14.3637 -12.5035 -10.6445  -9.1124  -8.3444  -6.9115  -6.0234
    -4.8774  -4.2332  -4.0911  -2.0718   0.3061   2.9814   3.3052   3.6398

          k = 0.1111 0.5774 0.0000 ( 18034 PWs)   bands (ev):

   -15.3535 -14.6487 -12.5524 -10.6694  -8.7364  -8.1257  -7.2137  -5.6661
    -5.1403  -4.7399  -4.0519  -2.1740   0.2489   3.4169   3.5000   4.2819

          k = 0.2222 0.3849 0.0000 ( 18041 PWs)   bands (ev):

   -15.5905 -14.2729 -12.6462 -10.1513  -9.6265  -8.3266  -6.9778  -6.0879
    -4.4687  -4.2661  -4.0023  -2.4491   1.2572   2.2112   2.5974   3.5480

          k = 0.2222 0.5132 0.0000 ( 18027 PWs)   bands (ev):

   -15.2927 -14.6730 -12.8118 -10.0075  -9.1816  -7.9978  -7.5731  -5.5945
    -4.6555  -4.6360  -4.2350  -2.7869   1.4519   2.9536   3.0721   3.5437

          k = 0.3333 0.5774 0.0000 ( 18078 PWs)   bands (ev):

   -14.9877 -14.9876 -12.9366  -9.4168  -9.4168  -7.9921  -7.8721  -5.1091
    -5.1091  -4.3833  -4.3832  -3.0645   2.5667   2.5667   3.1210   3.1210

     the Fermi energy is    -0.5382 ev

!    total energy              =     -49.98702588 Ry
     estimated scf accuracy    <       0.00000098 Ry
     smearing contrib. (-TS)   =       0.00013463 Ry
     internal energy E=F+TS    =     -49.98716051 Ry

     The total energy is F=E-TS. E is the sum of the following terms:
     one-electron contribution =    -180.03867946 Ry
     hartree contribution      =      94.66602883 Ry
     xc contribution           =     -23.30568993 Ry
     ewald contribution        =      58.69118006 Ry

     convergence has been achieved in   6 iterations

     Writing all to output data dir ../../outdir/borophene.save/

     init_run     :     11.67s CPU     -3.69s WALL (       1 calls)
     electrons    :    135.72s CPU    131.92s WALL (       1 calls)

     Called by init_run:
     wfcinit      :     10.23s CPU     -5.03s WALL (       1 calls)
     potinit      :      0.24s CPU      0.18s WALL (       1 calls)
     hinit0       :      1.02s CPU      0.93s WALL (       1 calls)

     Called by electrons:
     c_bands      :    111.89s CPU    113.76s WALL (       6 calls)
     sum_band     :     21.91s CPU     16.31s WALL (       6 calls)
     v_of_rho     :      1.40s CPU      1.08s WALL (       7 calls)
     newd         :      0.60s CPU      0.81s WALL (       7 calls)
     mix_rho      :      0.19s CPU      0.16s WALL (       6 calls)

     Called by c_bands:
     init_us_2    :      1.10s CPU      0.99s WALL (     156 calls)
     init_us_2:cp :      1.10s CPU      0.99s WALL (     156 calls)
     cegterg      :    109.94s CPU    112.18s WALL (      72 calls)

     Called by *egterg:
     cdiaghg      :      0.18s CPU      0.13s WALL (     323 calls)
     h_psi        :    110.38s CPU    100.62s WALL (     335 calls)
     s_psi        :      2.26s CPU      1.29s WALL (     335 calls)
     g_psi        :      0.31s CPU      0.29s WALL (     251 calls)

     Called by h_psi:
     h_psi:calbec :      2.57s CPU      2.26s WALL (     335 calls)
     vloc_psi     :    105.15s CPU    108.39s WALL (     335 calls)
     add_vuspsi   :      2.28s CPU    -10.42s WALL (     335 calls)

     General routines
     calbec       :      3.39s CPU      2.93s WALL (     407 calls)
     fft          :      1.25s CPU      1.08s WALL (      77 calls)
     ffts         :      0.04s CPU      0.05s WALL (       6 calls)
     fftw         :    102.54s CPU    118.56s WALL (    8380 calls)

     Parallel routines

     PWSCF        :   2m27.53s CPU   2m 8.54s WALL


   This run was terminated on:  11:22:19   3Jul2025            

=------------------------------------------------------------------------------=
   JOB DONE.
=------------------------------------------------------------------------------=
