
     Program PWSCF v.7.2 starts on  3Jul2025 at 12:20:48 

     This program is part of the open-source Quantum ESPRESSO suite
     for quantum simulation of materials; please cite
         "P. Giannozzi et al., J. Phys.:Condens. Matter 21 395502 (2009);
         "P. Giannozzi et al., J. Phys.:Condens. Matter 29 465901 (2017);
         "P. Giannozzi et al., J. Chem. Phys. 152 154105 (2020);
          URL http://www.quantum-espresso.org", 
     in publications or presentations arising from this work. More details at
     http://www.quantum-espresso.org/quote

     Parallel version (MPI & OpenMP), running on       2 processor cores
     Number of MPI processes:                 1
     Threads/MPI process:                     2

     MPI processes distributed on     1 nodes
     378 MiB available memory on the printing compute node when the environment starts

     Reading input from ../latticeparam/alpha_10_9.56.in

     Current dimensions of program PWSCF are:
     Max number of different atomic species (ntypx) = 10
     Max number of k-points (npk) =  40000
     Max angular momentum in pseudopotentials (lmaxx) =  4
     file B.pbesol-n-rrkjus_psl.1.0.0.UPF: wavefunction(s)  2S renormalized

     IMPORTANT: XC functional enforced from input :
     Exchange-correlation= PBESOL
                           (   1   4  10   8   0   0   0)
     Any further DFT definition will be discarded
     Please, verify this is what you really want


     Subspace diagonalization in iterative solution of the eigenvalue problem:
     a serial algorithm will be used


     G-vector sticks info
     --------------------
     sticks:   dense  smooth     PW     G-vecs:    dense   smooth      PW
     Sum        1765    1765    499               119609   119609   17207

     Using Slab Decomposition



     bravais-lattice index     =            4
     lattice parameter (alat)  =       9.5600  a.u.
     unit-cell volume          =    1513.3323 (a.u.)^3
     number of atoms/cell      =            8
     number of atomic types    =            1
     number of electrons       =        24.00
     number of Kohn-Sham states=           16
     kinetic-energy cutoff     =      70.0000  Ry
     charge density cutoff     =     280.0000  Ry
     scf convergence threshold =      1.0E-06
     mixing beta               =       0.7000
     number of iterations used =            8  plain     mixing
     Exchange-correlation= PBESOL
                           (   1   4  10   8   0   0   0)

     celldm(1)=   9.560000  celldm(2)=   0.000000  celldm(3)=   2.000000
     celldm(4)=   0.000000  celldm(5)=   0.000000  celldm(6)=   0.000000

     crystal axes: (cart. coord. in units of alat)
               a(1) = (   1.000000   0.000000   0.000000 )  
               a(2) = (  -0.500000   0.866025   0.000000 )  
               a(3) = (   0.000000   0.000000   2.000000 )  

     reciprocal axes: (cart. coord. in units 2 pi/alat)
               b(1) = (  1.000000  0.577350 -0.000000 )  
               b(2) = (  0.000000  1.154701  0.000000 )  
               b(3) = (  0.000000 -0.000000  0.500000 )  


     PseudoPot. # 1 for B  read from file:
     ../../pseudo/B.pbesol-n-rrkjus_psl.1.0.0.UPF
     MD5 check sum: a3839a09b1a4e02f2a06a66adc9253fc
     Pseudo is Ultrasoft + core correction, Zval =  3.0
     Generated using &quot;atomic&quot; code by A. Dal Corso  v.6.3MaX
     Using radial grid of 1059 points,  4 beta functions with: 
                l(1) =   0
                l(2) =   0
                l(3) =   1
                l(4) =   1
     Q(r) pseudized with 0 coefficients 


     atomic species   valence    mass     pseudopotential
        B              3.00    10.81100     B ( 1.00)

     24 Sym. Ops., with inversion, found



   Cartesian axes

     site n.     atom                  positions (alat units)
         1           B   tau(   1) = (   0.3333330   0.0000000   0.0000000  )
         2           B   tau(   2) = (   0.6666670   0.0000000   0.0000000  )
         3           B   tau(   3) = (  -0.1666665   0.2886748   0.0000000  )
         4           B   tau(   4) = (   0.1666665   0.2886748   0.0000000  )
         5           B   tau(   5) = (   0.5000005   0.2886748   0.0000000  )
         6           B   tau(   6) = (  -0.3333335   0.5773506   0.0000000  )
         7           B   tau(   7) = (  -0.0000005   0.5773506   0.0000000  )
         8           B   tau(   8) = (   0.3333335   0.5773506   0.0000000  )

     number of k points=    14  Marzari-Vanderbilt smearing, width (Ry)=  0.0350
                       cart. coord. in units 2pi/alat
        k(    1) = (   0.0000000   0.0000000   0.0000000), wk =   0.0200000
        k(    2) = (   0.0000000   0.1154701   0.0000000), wk =   0.1200000
        k(    3) = (   0.0000000   0.2309401   0.0000000), wk =   0.1200000
        k(    4) = (   0.0000000   0.3464102   0.0000000), wk =   0.1200000
        k(    5) = (   0.0000000   0.4618802   0.0000000), wk =   0.1200000
        k(    6) = (   0.0000000  -0.5773503   0.0000000), wk =   0.0600000
        k(    7) = (   0.1000000   0.1732051   0.0000000), wk =   0.1200000
        k(    8) = (   0.1000000   0.2886751   0.0000000), wk =   0.2400000
        k(    9) = (   0.1000000   0.4041452   0.0000000), wk =   0.2400000
        k(   10) = (   0.1000000   0.5196152   0.0000000), wk =   0.2400000
        k(   11) = (   0.2000000   0.3464102   0.0000000), wk =   0.1200000
        k(   12) = (   0.2000000   0.4618802   0.0000000), wk =   0.2400000
        k(   13) = (   0.2000000   0.5773503   0.0000000), wk =   0.1200000
        k(   14) = (   0.3000000   0.5196152   0.0000000), wk =   0.1200000

     Dense  grid:   119609 G-vectors     FFT dimensions: (  54,  54, 108)

     Estimated max dynamical RAM per process >     234.25 MB

     Initial potential from superposition of free atoms

     starting charge      23.9977, renormalised to      24.0000

     negative rho (up, down):  4.304E-05 0.000E+00
     Starting wfcs are   32 randomized atomic wfcs

     total cpu time spent up to now is       12.7 secs

     per-process dynamical memory:   139.1 Mb

     Self-consistent Calculation

     iteration #  1     ecut=    70.00 Ry     beta= 0.70
     Davidson diagonalization with overlap
     ethr =  1.00E-02,  avg # of iterations =  2.0

     negative rho (up, down):  3.679E-04 0.000E+00

     total cpu time spent up to now is       24.9 secs

     total energy              =     -49.86770789 Ry
     estimated scf accuracy    <       0.70117539 Ry

     iteration #  2     ecut=    70.00 Ry     beta= 0.70
     Davidson diagonalization with overlap
     ethr =  2.92E-03,  avg # of iterations =  2.0

     negative rho (up, down):  6.479E-04 0.000E+00

     total cpu time spent up to now is       47.4 secs

     total energy              =     -49.98210354 Ry
     estimated scf accuracy    <       0.01858505 Ry

     iteration #  3     ecut=    70.00 Ry     beta= 0.70
     Davidson diagonalization with overlap
     ethr =  7.74E-05,  avg # of iterations =  3.1

     negative rho (up, down):  7.488E-04 0.000E+00

     total cpu time spent up to now is       58.3 secs

     total energy              =     -49.98691717 Ry
     estimated scf accuracy    <       0.00483521 Ry

     iteration #  4     ecut=    70.00 Ry     beta= 0.70
     Davidson diagonalization with overlap
     ethr =  2.01E-05,  avg # of iterations =  4.7

     negative rho (up, down):  8.543E-04 0.000E+00

     total cpu time spent up to now is       84.1 secs

     total energy              =     -49.98796059 Ry
     estimated scf accuracy    <       0.00016574 Ry

     iteration #  5     ecut=    70.00 Ry     beta= 0.70
     Davidson diagonalization with overlap
     ethr =  6.91E-07,  avg # of iterations =  4.4

     negative rho (up, down):  8.630E-04 0.000E+00

     total cpu time spent up to now is      158.6 secs

     total energy              =     -49.98798050 Ry
     estimated scf accuracy    <       0.00001530 Ry

     iteration #  6     ecut=    70.00 Ry     beta= 0.70
     Davidson diagonalization with overlap
     ethr =  6.38E-08,  avg # of iterations =  2.5

     negative rho (up, down):  8.633E-04 0.000E+00

     total cpu time spent up to now is      170.4 secs

     End of self-consistent calculation

          k = 0.0000 0.0000 0.0000 ( 14985 PWs)   bands (ev):

   -16.2039 -12.0834 -12.0039 -12.0039  -9.7484  -9.7484  -7.6278  -7.0685
    -2.1101  -2.1101  -0.6417  -0.1289  -0.1289   0.1658   0.1658   0.5187

          k = 0.0000 0.1155 0.0000 ( 14978 PWs)   bands (ev):

   -16.1590 -12.6830 -12.0458 -11.4378  -9.8099  -9.6335  -7.4302  -6.9994
    -2.6220  -2.5450  -1.4794  -0.5189   0.0414   0.6455   0.7198   1.0439

          k = 0.0000 0.2309 0.0000 ( 14998 PWs)   bands (ev):

   -16.0262 -13.3046 -12.1438 -11.0113  -9.7845  -9.3241  -7.0064  -6.7941
    -3.5489  -3.3107  -2.5309  -0.9894  -0.1388   1.5717   1.7666   1.9178

          k = 0.0000 0.3464 0.0000 ( 14952 PWs)   bands (ev):

   -15.8141 -13.8805 -12.2474 -10.9246  -9.3954  -8.9005  -6.6939  -6.4608
    -4.4572  -3.8982  -3.4986  -1.3399  -0.3520   2.5334   2.8579   2.9329

          k = 0.0000 0.4619 0.0000 ( 14982 PWs)   bands (ev):

   -15.5522 -14.3665 -12.3212 -10.9821  -8.8476  -8.4829  -6.7697  -6.0330
    -5.1712  -4.3151  -4.0729  -1.5529  -0.5022   3.3046   3.5767   3.8021

          k = 0.0000-0.5774 0.0000 ( 14902 PWs)   bands (ev):

   -15.3865 -14.6079 -12.3475 -11.0134  -8.5496  -8.2874  -6.9454  -5.7353
    -5.4659  -4.7436  -4.0512  -1.6243  -0.5552   3.3646   3.8211   4.1907

          k = 0.1000 0.1732 0.0000 ( 15007 PWs)   bands (ev):

   -16.0701 -13.1340 -12.1466 -11.0428  -9.8778  -9.3938  -7.1250  -6.8622
    -3.3177  -3.0760  -2.2134  -1.0968   0.3338   1.1819   1.2006   1.5773

          k = 0.1000 0.2887 0.0000 ( 14981 PWs)   bands (ev):

   -15.8966 -13.6673 -12.3041 -10.7266  -9.7683  -8.9839  -6.7826  -6.5918
    -4.1261  -3.7199  -3.0982  -1.6184   0.3332   1.8774   1.9295   2.7476

          k = 0.1000 0.4041 0.0000 ( 14987 PWs)   bands (ev):

   -15.6531 -14.1739 -12.4380 -10.6919  -9.3031  -8.5341  -6.7795  -6.2037
    -4.7627  -4.1002  -3.9485  -1.9482   0.1895   2.6429   2.8819   3.3354

          k = 0.1000 0.5196 0.0000 ( 14966 PWs)   bands (ev):

   -15.4016 -14.5627 -12.5116 -10.7278  -8.8097  -8.2067  -7.1063  -5.7773
    -5.1724  -4.6173  -4.1053  -2.1083   0.0979   3.1825   3.4917   3.9242

          k = 0.2000 0.3464 0.0000 ( 14965 PWs)   bands (ev):

   -15.6883 -14.0834 -12.5475 -10.3082  -9.7290  -8.5273  -6.8200  -6.2628
    -4.4925  -4.1615  -3.7342  -2.2599   0.9903   1.9558   2.3043   3.2610

          k = 0.2000 0.4619 0.0000 ( 14943 PWs)   bands (ev):

   -15.4239 -14.4867 -12.7245 -10.1591  -9.3335  -8.1460  -7.2794  -5.8341
    -4.6701  -4.3874  -4.2946  -2.6314   1.1495   2.6846   2.7140   3.6796

          k = 0.2000 0.5774 0.0000 ( 14948 PWs)   bands (ev):

   -15.2381 -14.7214 -12.7866 -10.1538  -9.0032  -7.9906  -7.6298  -5.5114
    -4.8127  -4.7945  -4.2101  -2.7484   1.1432   2.9444   3.2586   3.4769

          k = 0.3000 0.5196 0.0000 ( 14937 PWs)   bands (ev):

   -15.1500 -14.7980 -12.9020  -9.6500  -9.3368  -7.9192  -7.8623  -5.3898
    -4.8417  -4.4969  -4.3879  -3.0160   2.0492   2.6774   2.8188   3.1890

     the Fermi energy is    -0.5858 ev

!    total energy              =     -49.98798480 Ry
     estimated scf accuracy    <       0.00000069 Ry
     smearing contrib. (-TS)   =       0.00039995 Ry
     internal energy E=F+TS    =     -49.98838475 Ry

     The total energy is F=E-TS. E is the sum of the following terms:
     one-electron contribution =    -179.57101415 Ry
     hartree contribution      =      94.37952985 Ry
     xc contribution           =     -23.24251072 Ry
     ewald contribution        =      58.44561026 Ry

     convergence has been achieved in   6 iterations

     Writing all to output data dir ../../outdir/borophene.save/

     init_run     :     20.65s CPU     12.62s WALL (       1 calls)
     electrons    :    226.93s CPU    157.64s WALL (       1 calls)

     Called by init_run:
     wfcinit      :     18.70s CPU     10.93s WALL (       1 calls)
     potinit      :      0.43s CPU      0.29s WALL (       1 calls)
     hinit0       :      1.23s CPU      1.05s WALL (       1 calls)

     Called by electrons:
     c_bands      :    187.04s CPU    140.96s WALL (       6 calls)
     sum_band     :     36.48s CPU     13.96s WALL (       6 calls)
     v_of_rho     :      2.62s CPU      1.57s WALL (       7 calls)
     newd         :      0.94s CPU      1.21s WALL (       7 calls)
     mix_rho      :      0.28s CPU      0.27s WALL (       6 calls)

     Called by c_bands:
     init_us_2    :      2.20s CPU      1.76s WALL (     182 calls)
     init_us_2:cp :      2.19s CPU      1.76s WALL (     182 calls)
     cegterg      :    182.78s CPU    137.76s WALL (      84 calls)

     Called by *egterg:
     cdiaghg      :      0.32s CPU      0.22s WALL (     346 calls)
     h_psi        :    178.34s CPU    146.55s WALL (     360 calls)
     s_psi        :      5.98s CPU      3.57s WALL (     360 calls)
     g_psi        :      0.64s CPU      0.62s WALL (     262 calls)

     Called by h_psi:
     h_psi:calbec :      7.87s CPU      5.38s WALL (     360 calls)
     vloc_psi     :    163.79s CPU    137.13s WALL (     360 calls)
     add_vuspsi   :      5.69s CPU      3.14s WALL (     360 calls)

     General routines
     calbec       :     10.33s CPU      7.06s WALL (     444 calls)
     fft          :      1.85s CPU      1.29s WALL (      77 calls)
     ffts         :      0.10s CPU      0.07s WALL (       6 calls)
     fftw         :    151.16s CPU    121.91s WALL (    9710 calls)

     Parallel routines

     PWSCF        :   4m 7.87s CPU   2m50.75s WALL


   This run was terminated on:  12:23:38   3Jul2025            

=------------------------------------------------------------------------------=
   JOB DONE.
=------------------------------------------------------------------------------=
