
     Program PWSCF v.7.2 starts on  2Jul2025 at 11:56:14 

     This program is part of the open-source Quantum ESPRESSO suite
     for quantum simulation of materials; please cite
         "P. Giannozzi et al., J. Phys.:Condens. Matter 21 395502 (2009);
         "P. Giannozzi et al., J. Phys.:Condens. Matter 29 465901 (2017);
         "P. Giannozzi et al., J. Chem. Phys. 152 154105 (2020);
          URL http://www.quantum-espresso.org", 
     in publications or presentations arising from this work. More details at
     http://www.quantum-espresso.org/quote

     Parallel version (MPI & OpenMP), running on       2 processor cores
     Number of MPI processes:                 1
     Threads/MPI process:                     2

     MPI processes distributed on     1 nodes
     392 MiB available memory on the printing compute node when the environment starts

     Reading input from ../latticeparam/alpha_9.4.in

     Current dimensions of program PWSCF are:
     Max number of different atomic species (ntypx) = 10
     Max number of k-points (npk) =  40000
     Max angular momentum in pseudopotentials (lmaxx) =  4
     file B.pbesol-n-rrkjus_psl.1.0.0.UPF: wavefunction(s)  2S renormalized

     IMPORTANT: XC functional enforced from input :
     Exchange-correlation= PBESOL
                           (   1   4  10   8   0   0   0)
     Any further DFT definition will be discarded
     Please, verify this is what you really want


     Subspace diagonalization in iterative solution of the eigenvalue problem:
     a serial algorithm will be used


     G-vector sticks info
     --------------------
     sticks:   dense  smooth     PW     G-vecs:    dense   smooth      PW
     Sum        1711    1711    475               113699   113699   16667

     Using Slab Decomposition



     bravais-lattice index     =            4
     lattice parameter (alat)  =       9.4000  a.u.
     unit-cell volume          =    1438.6137 (a.u.)^3
     number of atoms/cell      =            8
     number of atomic types    =            1
     number of electrons       =        24.00
     number of Kohn-Sham states=           16
     kinetic-energy cutoff     =      70.0000  Ry
     charge density cutoff     =     280.0000  Ry
     scf convergence threshold =      1.0E-06
     mixing beta               =       0.7000
     number of iterations used =            8  plain     mixing
     Exchange-correlation= PBESOL
                           (   1   4  10   8   0   0   0)

     celldm(1)=   9.400000  celldm(2)=   0.000000  celldm(3)=   2.000000
     celldm(4)=   0.000000  celldm(5)=   0.000000  celldm(6)=   0.000000

     crystal axes: (cart. coord. in units of alat)
               a(1) = (   1.000000   0.000000   0.000000 )  
               a(2) = (  -0.500000   0.866025   0.000000 )  
               a(3) = (   0.000000   0.000000   2.000000 )  

     reciprocal axes: (cart. coord. in units 2 pi/alat)
               b(1) = (  1.000000  0.577350 -0.000000 )  
               b(2) = (  0.000000  1.154701  0.000000 )  
               b(3) = (  0.000000 -0.000000  0.500000 )  


     PseudoPot. # 1 for B  read from file:
     ../../pseudo/B.pbesol-n-rrkjus_psl.1.0.0.UPF
     MD5 check sum: a3839a09b1a4e02f2a06a66adc9253fc
     Pseudo is Ultrasoft + core correction, Zval =  3.0
     Generated using &quot;atomic&quot; code by A. Dal Corso  v.6.3MaX
     Using radial grid of 1059 points,  4 beta functions with: 
                l(1) =   0
                l(2) =   0
                l(3) =   1
                l(4) =   1
     Q(r) pseudized with 0 coefficients 


     atomic species   valence    mass     pseudopotential
        B              3.00    10.81100     B ( 1.00)

     24 Sym. Ops., with inversion, found



   Cartesian axes

     site n.     atom                  positions (alat units)
         1           B   tau(   1) = (   0.3333330   0.0000000   0.0000000  )
         2           B   tau(   2) = (   0.6666670   0.0000000   0.0000000  )
         3           B   tau(   3) = (  -0.1666665   0.2886748   0.0000000  )
         4           B   tau(   4) = (   0.1666665   0.2886748   0.0000000  )
         5           B   tau(   5) = (   0.5000005   0.2886748   0.0000000  )
         6           B   tau(   6) = (  -0.3333335   0.5773506   0.0000000  )
         7           B   tau(   7) = (  -0.0000005   0.5773506   0.0000000  )
         8           B   tau(   8) = (   0.3333335   0.5773506   0.0000000  )

     number of k points=    12  Marzari-Vanderbilt smearing, width (Ry)=  0.0350
                       cart. coord. in units 2pi/alat
        k(    1) = (   0.0000000   0.0000000   0.0000000), wk =   0.0246914
        k(    2) = (   0.0000000   0.1283001   0.0000000), wk =   0.1481481
        k(    3) = (   0.0000000   0.2566001   0.0000000), wk =   0.1481481
        k(    4) = (   0.0000000   0.3849002   0.0000000), wk =   0.1481481
        k(    5) = (   0.0000000   0.5132002   0.0000000), wk =   0.1481481
        k(    6) = (   0.1111111   0.1924501   0.0000000), wk =   0.1481481
        k(    7) = (   0.1111111   0.3207501   0.0000000), wk =   0.2962963
        k(    8) = (   0.1111111   0.4490502   0.0000000), wk =   0.2962963
        k(    9) = (   0.1111111   0.5773503   0.0000000), wk =   0.1481481
        k(   10) = (   0.2222222   0.3849002   0.0000000), wk =   0.1481481
        k(   11) = (   0.2222222   0.5132002   0.0000000), wk =   0.2962963
        k(   12) = (   0.3333333   0.5773503   0.0000000), wk =   0.0493827

     Dense  grid:   113699 G-vectors     FFT dimensions: (  54,  54, 108)

     Estimated max dynamical RAM per process >     216.82 MB

     Initial potential from superposition of free atoms

     starting charge      23.9977, renormalised to      24.0000

     negative rho (up, down):  2.826E-05 0.000E+00
     Starting wfcs are   32 randomized atomic wfcs

     total cpu time spent up to now is        5.8 secs

     per-process dynamical memory:   124.7 Mb

     Self-consistent Calculation

     iteration #  1     ecut=    70.00 Ry     beta= 0.70
     Davidson diagonalization with overlap
     ethr =  1.00E-02,  avg # of iterations =  2.2

     negative rho (up, down):  3.506E-04 0.000E+00

     total cpu time spent up to now is       17.7 secs

     total energy              =     -49.83704213 Ry
     estimated scf accuracy    <       0.80878441 Ry

     iteration #  2     ecut=    70.00 Ry     beta= 0.70
     Davidson diagonalization with overlap
     ethr =  3.37E-03,  avg # of iterations =  2.0

     negative rho (up, down):  6.584E-04 0.000E+00

     total cpu time spent up to now is       17.8 secs

     total energy              =     -49.97009809 Ry
     estimated scf accuracy    <       0.02214541 Ry

     iteration #  3     ecut=    70.00 Ry     beta= 0.70
     Davidson diagonalization with overlap
     ethr =  9.23E-05,  avg # of iterations =  4.7

     negative rho (up, down):  7.737E-04 0.000E+00

     total cpu time spent up to now is       32.0 secs

     total energy              =     -49.97593057 Ry
     estimated scf accuracy    <       0.00540222 Ry

     iteration #  4     ecut=    70.00 Ry     beta= 0.70
     Davidson diagonalization with overlap
     ethr =  2.25E-05,  avg # of iterations =  3.9

     negative rho (up, down):  8.959E-04 0.000E+00

     total cpu time spent up to now is       34.1 secs

     total energy              =     -49.97710161 Ry
     estimated scf accuracy    <       0.00017981 Ry

     iteration #  5     ecut=    70.00 Ry     beta= 0.70
     Davidson diagonalization with overlap
     ethr =  7.49E-07,  avg # of iterations =  5.0

     negative rho (up, down):  9.065E-04 0.000E+00

     total cpu time spent up to now is      105.8 secs

     total energy              =     -49.97712301 Ry
     estimated scf accuracy    <       0.00001777 Ry

     iteration #  6     ecut=    70.00 Ry     beta= 0.70
     Davidson diagonalization with overlap
     ethr =  7.41E-08,  avg # of iterations =  2.6

     negative rho (up, down):  9.068E-04 0.000E+00

     total cpu time spent up to now is      117.8 secs

     total energy              =     -49.97712818 Ry
     estimated scf accuracy    <       0.00000107 Ry

     iteration #  7     ecut=    70.00 Ry     beta= 0.70
     Davidson diagonalization with overlap
     ethr =  4.46E-09,  avg # of iterations =  3.0

     negative rho (up, down):  9.067E-04 0.000E+00

     total cpu time spent up to now is      117.0 secs

     End of self-consistent calculation

          k = 0.0000 0.0000 0.0000 ( 14199 PWs)   bands (ev):

   -16.2697 -12.0785 -12.0085 -12.0085  -9.6641  -9.6640  -7.5972  -7.1227
    -1.8577  -1.8577  -0.4420   0.0789   0.0789   0.5209   0.5210   0.7586

          k = 0.0000 0.1283 0.0000 ( 14253 PWs)   bands (ev):

   -16.2132 -12.7620 -12.0572 -11.3666  -9.7487  -9.5252  -7.3472  -7.0343
    -2.4770  -2.3863  -1.4414  -0.3835   0.2482   1.1183   1.2026   1.3951

          k = 0.0000 0.2566 0.0000 ( 14246 PWs)   bands (ev):

   -16.0468 -13.4554 -12.1661 -10.9375  -9.6864  -9.1582  -6.8604  -6.7719
    -3.5392  -3.2456  -2.6457  -0.9062   0.0154   2.2256   2.4368   2.4432

          k = 0.0000 0.3849 0.0000 ( 14216 PWs)   bands (ev):

   -15.7853 -14.0832 -12.2715 -10.9085  -9.1792  -8.6791  -6.6180  -6.3509
    -4.5201  -3.7892  -3.7230  -1.2675  -0.2212   3.2789   3.4059   3.6511

          k = 0.0000 0.5132 0.0000 ( 14216 PWs)   bands (ev):

   -15.4976 -14.5588 -12.3326 -10.9737  -8.6186  -8.2857  -6.8170  -5.8567
    -5.1681  -4.5512  -3.8618  -1.4500  -0.3556   3.9270   4.1243   4.3456

          k = 0.1111 0.1925 0.0000 ( 14231 PWs)   bands (ev):

   -16.1015 -13.2641 -12.1806 -10.9282  -9.8302  -9.2374  -6.9891  -6.8587
    -3.2721  -2.9961  -2.2762  -1.0714   0.6235   1.5236   1.7742   2.2352

          k = 0.1111 0.3208 0.0000 ( 14240 PWs)   bands (ev):

   -15.8855 -13.8503 -12.3641 -10.6180  -9.6496  -8.7662  -6.6785  -6.5147
    -4.1186  -3.6775  -3.2704  -1.6510   0.6199   2.3626   2.6141   3.1505

          k = 0.1111 0.4491 0.0000 ( 14232 PWs)   bands (ev):

   -15.5930 -14.3866 -12.5012 -10.6166  -9.0780  -8.3006  -6.8643  -6.0336
    -4.7286  -4.1939  -3.9390  -1.9762   0.4725   3.3985   3.5653   3.7292

          k = 0.1111 0.5774 0.0000 ( 14226 PWs)   bands (ev):

   -15.3884 -14.6757 -12.5502 -10.6421  -8.6991  -8.0860  -7.1634  -5.6652
    -4.9944  -4.7162  -3.9046  -2.0814   0.4127   3.8596   3.9843   4.4016

          k = 0.2222 0.3849 0.0000 ( 14231 PWs)   bands (ev):

   -15.6293 -14.2942 -12.6466 -10.1158  -9.5939  -8.2854  -6.9300  -6.1001
    -4.3160  -4.1199  -3.9547  -2.3669   1.4599   2.4288   3.0156   3.6270

          k = 0.2222 0.5132 0.0000 ( 14212 PWs)   bands (ev):

   -15.3270 -14.6994 -12.8143  -9.9706  -9.1414  -7.9631  -7.5237  -5.5920
    -4.6270  -4.4936  -4.0916  -2.7153   1.6565   3.3256   3.4146   4.0339

          k = 0.3333 0.5774 0.0000 ( 14256 PWs)   bands (ev):

   -15.0178 -15.0177 -12.9413  -9.3735  -9.3735  -7.9477  -7.8405  -5.0927
    -5.0926  -4.2426  -4.2426  -3.0024   2.8099   2.8099   3.6047   3.6047

     the Fermi energy is    -0.3918 ev

!    total energy              =     -49.97712852 Ry
     estimated scf accuracy    <       0.00000004 Ry
     smearing contrib. (-TS)   =      -0.00000804 Ry
     internal energy E=F+TS    =     -49.97712048 Ry

     The total energy is F=E-TS. E is the sum of the following terms:
     one-electron contribution =    -181.45149121 Ry
     hartree contribution      =      95.53423532 Ry
     xc contribution           =     -23.50029376 Ry
     ewald contribution        =      59.44042916 Ry

     convergence has been achieved in   7 iterations

     Writing all to output data dir ../../outdir/borophene.save/

     init_run     :      8.20s CPU      5.76s WALL (       1 calls)
     electrons    :    119.50s CPU    111.14s WALL (       1 calls)

     Called by init_run:
     wfcinit      :      7.14s CPU      4.83s WALL (       1 calls)
     potinit      :      0.23s CPU      0.15s WALL (       1 calls)
     hinit0       :      0.71s CPU      0.61s WALL (       1 calls)

     Called by electrons:
     c_bands      :     96.63s CPU    116.85s WALL (       7 calls)
     sum_band     :     21.25s CPU     -7.17s WALL (       7 calls)
     v_of_rho     :      1.19s CPU      0.90s WALL (       8 calls)
     newd         :      0.48s CPU      0.60s WALL (       8 calls)
     mix_rho      :      0.16s CPU      0.14s WALL (       7 calls)

     Called by c_bands:
     init_us_2    :      0.93s CPU      0.84s WALL (     180 calls)
     init_us_2:cp :      0.92s CPU      0.84s WALL (     180 calls)
     cegterg      :     95.01s CPU    115.50s WALL (      84 calls)

     Called by *egterg:
     cdiaghg      :      0.18s CPU      0.12s WALL (     364 calls)
     h_psi        :     94.07s CPU    114.84s WALL (     376 calls)
     s_psi        :      1.78s CPU      1.10s WALL (     376 calls)
     g_psi        :      0.26s CPU      0.25s WALL (     280 calls)

     Called by h_psi:
     h_psi:calbec :      2.23s CPU      2.07s WALL (     376 calls)
     vloc_psi     :     89.76s CPU    111.41s WALL (     376 calls)
     add_vuspsi   :      1.76s CPU      1.03s WALL (     376 calls)

     General routines
     calbec       :      3.00s CPU      2.71s WALL (     460 calls)
     fft          :      0.88s CPU      0.74s WALL (      88 calls)
     ffts         :      0.04s CPU      0.03s WALL (       7 calls)
     fftw         :     92.80s CPU     90.51s WALL (    9626 calls)

     Parallel routines

     PWSCF        :   2m 7.82s CPU   1m57.10s WALL


   This run was terminated on:  11:58:11   2Jul2025            

=------------------------------------------------------------------------------=
   JOB DONE.
=------------------------------------------------------------------------------=
