
     Program PWSCF v.7.2 starts on  3Jul2025 at 11:29: 2 

     This program is part of the open-source Quantum ESPRESSO suite
     for quantum simulation of materials; please cite
         "P. Giannozzi et al., J. Phys.:Condens. Matter 21 395502 (2009);
         "P. Giannozzi et al., J. Phys.:Condens. Matter 29 465901 (2017);
         "P. Giannozzi et al., J. Chem. Phys. 152 154105 (2020);
          URL http://www.quantum-espresso.org", 
     in publications or presentations arising from this work. More details at
     http://www.quantum-espresso.org/quote

     Parallel version (MPI & OpenMP), running on       2 processor cores
     Number of MPI processes:                 1
     Threads/MPI process:                     2

     MPI processes distributed on     1 nodes
     433 MiB available memory on the printing compute node when the environment starts

     Reading input from ../latticeparam/alpha_80_9.62.in

     Current dimensions of program PWSCF are:
     Max number of different atomic species (ntypx) = 10
     Max number of k-points (npk) =  40000
     Max angular momentum in pseudopotentials (lmaxx) =  4
     file B.pbesol-n-rrkjus_psl.1.0.0.UPF: wavefunction(s)  2S renormalized

     IMPORTANT: XC functional enforced from input :
     Exchange-correlation= PBESOL
                           (   1   4  10   8   0   0   0)
     Any further DFT definition will be discarded
     Please, verify this is what you really want


     Subspace diagonalization in iterative solution of the eigenvalue problem:
     a serial algorithm will be used


     G-vector sticks info
     --------------------
     sticks:   dense  smooth     PW     G-vecs:    dense   smooth      PW
     Sum        2053    2053    559               149233   149233   21495

     Using Slab Decomposition



     bravais-lattice index     =            4
     lattice parameter (alat)  =       9.6200  a.u.
     unit-cell volume          =    1542.0052 (a.u.)^3
     number of atoms/cell      =            8
     number of atomic types    =            1
     number of electrons       =        24.00
     number of Kohn-Sham states=           16
     kinetic-energy cutoff     =      80.0000  Ry
     charge density cutoff     =     320.0000  Ry
     scf convergence threshold =      1.0E-06
     mixing beta               =       0.7000
     number of iterations used =            8  plain     mixing
     Exchange-correlation= PBESOL
                           (   1   4  10   8   0   0   0)

     celldm(1)=   9.620000  celldm(2)=   0.000000  celldm(3)=   2.000000
     celldm(4)=   0.000000  celldm(5)=   0.000000  celldm(6)=   0.000000

     crystal axes: (cart. coord. in units of alat)
               a(1) = (   1.000000   0.000000   0.000000 )  
               a(2) = (  -0.500000   0.866025   0.000000 )  
               a(3) = (   0.000000   0.000000   2.000000 )  

     reciprocal axes: (cart. coord. in units 2 pi/alat)
               b(1) = (  1.000000  0.577350 -0.000000 )  
               b(2) = (  0.000000  1.154701  0.000000 )  
               b(3) = (  0.000000 -0.000000  0.500000 )  


     PseudoPot. # 1 for B  read from file:
     ../../pseudo/B.pbesol-n-rrkjus_psl.1.0.0.UPF
     MD5 check sum: a3839a09b1a4e02f2a06a66adc9253fc
     Pseudo is Ultrasoft + core correction, Zval =  3.0
     Generated using &quot;atomic&quot; code by A. Dal Corso  v.6.3MaX
     Using radial grid of 1059 points,  4 beta functions with: 
                l(1) =   0
                l(2) =   0
                l(3) =   1
                l(4) =   1
     Q(r) pseudized with 0 coefficients 


     atomic species   valence    mass     pseudopotential
        B              3.00    10.81100     B ( 1.00)

     24 Sym. Ops., with inversion, found



   Cartesian axes

     site n.     atom                  positions (alat units)
         1           B   tau(   1) = (   0.3333330   0.0000000   0.0000000  )
         2           B   tau(   2) = (   0.6666670   0.0000000   0.0000000  )
         3           B   tau(   3) = (  -0.1666665   0.2886748   0.0000000  )
         4           B   tau(   4) = (   0.1666665   0.2886748   0.0000000  )
         5           B   tau(   5) = (   0.5000005   0.2886748   0.0000000  )
         6           B   tau(   6) = (  -0.3333335   0.5773506   0.0000000  )
         7           B   tau(   7) = (  -0.0000005   0.5773506   0.0000000  )
         8           B   tau(   8) = (   0.3333335   0.5773506   0.0000000  )

     number of k points=    12  Marzari-Vanderbilt smearing, width (Ry)=  0.0350
                       cart. coord. in units 2pi/alat
        k(    1) = (   0.0000000   0.0000000   0.0000000), wk =   0.0246914
        k(    2) = (   0.0000000   0.1283001   0.0000000), wk =   0.1481481
        k(    3) = (   0.0000000   0.2566001   0.0000000), wk =   0.1481481
        k(    4) = (   0.0000000   0.3849002   0.0000000), wk =   0.1481481
        k(    5) = (   0.0000000   0.5132002   0.0000000), wk =   0.1481481
        k(    6) = (   0.1111111   0.1924501   0.0000000), wk =   0.1481481
        k(    7) = (   0.1111111   0.3207501   0.0000000), wk =   0.2962963
        k(    8) = (   0.1111111   0.4490502   0.0000000), wk =   0.2962963
        k(    9) = (   0.1111111   0.5773503   0.0000000), wk =   0.1481481
        k(   10) = (   0.2222222   0.3849002   0.0000000), wk =   0.1481481
        k(   11) = (   0.2222222   0.5132002   0.0000000), wk =   0.2962963
        k(   12) = (   0.3333333   0.5773503   0.0000000), wk =   0.0493827

     Dense  grid:   149233 G-vectors     FFT dimensions: (  60,  60, 120)

     Estimated max dynamical RAM per process >     285.59 MB

     Check: negative core charge=   -0.000001

     Initial potential from superposition of free atoms

     starting charge      23.9977, renormalised to      24.0000

     negative rho (up, down):  8.189E-06 0.000E+00
     Starting wfcs are   32 randomized atomic wfcs

     total cpu time spent up to now is       -0.9 secs

     per-process dynamical memory:   164.8 Mb

     Self-consistent Calculation

     iteration #  1     ecut=    80.00 Ry     beta= 0.70
     Davidson diagonalization with overlap
     ethr =  1.00E-02,  avg # of iterations =  2.0

     negative rho (up, down):  1.784E-04 0.000E+00

     total cpu time spent up to now is       73.3 secs

     total energy              =     -49.87467126 Ry
     estimated scf accuracy    <       0.66377261 Ry

     iteration #  2     ecut=    80.00 Ry     beta= 0.70
     Davidson diagonalization with overlap
     ethr =  2.77E-03,  avg # of iterations =  2.0

     negative rho (up, down):  3.622E-04 0.000E+00

     total cpu time spent up to now is       89.7 secs

     total energy              =     -49.98256465 Ry
     estimated scf accuracy    <       0.01687505 Ry

     iteration #  3     ecut=    80.00 Ry     beta= 0.70
     Davidson diagonalization with overlap
     ethr =  7.03E-05,  avg # of iterations =  3.6

     negative rho (up, down):  4.300E-04 0.000E+00

     total cpu time spent up to now is       96.1 secs

     total energy              =     -49.98686274 Ry
     estimated scf accuracy    <       0.00451062 Ry

     iteration #  4     ecut=    80.00 Ry     beta= 0.70
     Davidson diagonalization with overlap
     ethr =  1.88E-05,  avg # of iterations =  3.8

     negative rho (up, down):  5.027E-04 0.000E+00

     total cpu time spent up to now is      101.7 secs

     total energy              =     -49.98784669 Ry
     estimated scf accuracy    <       0.00016441 Ry

     iteration #  5     ecut=    80.00 Ry     beta= 0.70
     Davidson diagonalization with overlap
     ethr =  6.85E-07,  avg # of iterations =  5.5

     negative rho (up, down):  5.086E-04 0.000E+00

     total cpu time spent up to now is      123.4 secs

     total energy              =     -49.98786667 Ry
     estimated scf accuracy    <       0.00001632 Ry

     iteration #  6     ecut=    80.00 Ry     beta= 0.70
     Davidson diagonalization with overlap
     ethr =  6.80E-08,  avg # of iterations =  2.8

     negative rho (up, down):  5.090E-04 0.000E+00

     total cpu time spent up to now is      129.2 secs

     total energy              =     -49.98787131 Ry
     estimated scf accuracy    <       0.00000117 Ry

     iteration #  7     ecut=    80.00 Ry     beta= 0.70
     Davidson diagonalization with overlap
     ethr =  4.88E-09,  avg # of iterations =  2.9

     negative rho (up, down):  5.090E-04 0.000E+00

     total cpu time spent up to now is      146.0 secs

     End of self-consistent calculation

          k = 0.0000 0.0000 0.0000 ( 18685 PWs)   bands (ev):

   -16.1776 -12.0834 -12.0013 -12.0013  -9.7788  -9.7788  -7.6407  -7.0488
    -2.2024  -2.2024  -0.7121  -0.2050  -0.2049   0.0374   0.0374   0.4307

          k = 0.0000 0.1283 0.0000 ( 18649 PWs)   bands (ev):

   -16.1226 -12.7488 -12.0531 -11.3802  -9.8437  -9.6371  -7.4054  -6.9647
    -2.8057  -2.7144  -1.6536  -0.6457  -0.0499   0.6004   0.6885   1.0357

          k = 0.0000 0.2566 0.0000 ( 18636 PWs)   bands (ev):

   -15.9609 -13.4295 -12.1676 -10.9734  -9.7453  -9.2647  -6.9350  -6.7155
    -3.8397  -3.5509  -2.7950  -1.1420  -0.2624   1.6308   1.8565   2.0213

          k = 0.0000 0.3849 0.0000 ( 18634 PWs)   bands (ev):

   -15.7067 -14.0443 -12.2774 -10.9514  -9.2246  -8.7788  -6.6952  -6.3157
    -4.8010  -4.0807  -3.8167  -1.4850  -0.4806   2.6433   3.0177   3.1674

          k = 0.0000 0.5132 0.0000 ( 18612 PWs)   bands (ev):

   -15.4272 -14.5086 -12.3407 -11.0136  -8.6653  -8.3762  -6.8992  -5.8475
    -5.4446  -4.6017  -4.1381  -1.6582  -0.6052   3.1791   3.5613   3.8933

          k = 0.1111 0.1925 0.0000 ( 18637 PWs)   bands (ev):

   -16.0141 -13.2418 -12.1804 -10.9564  -9.9052  -9.3402  -7.0608  -6.7979
    -3.5856  -3.2996  -2.4456  -1.2945   0.3016   1.1715   1.1960   1.6761

          k = 0.1111 0.3208 0.0000 ( 18650 PWs)   bands (ev):

   -15.8041 -13.8167 -12.3661 -10.6646  -9.7071  -8.8562  -6.7560  -6.4712
    -4.4130  -3.9622  -3.3888  -1.8424   0.3055   1.9469   1.9633   2.9823

          k = 0.1111 0.4491 0.0000 ( 18643 PWs)   bands (ev):

   -15.5198 -14.3413 -12.5032 -10.6658  -9.1388  -8.3778  -6.9506  -6.0147
    -4.9984  -4.2644  -4.2158  -2.1505   0.1713   2.6376   3.0941   3.5300

          k = 0.1111 0.5774 0.0000 ( 18628 PWs)   bands (ev):

   -15.3211 -14.6231 -12.5521 -10.6904  -8.7644  -8.1553  -7.2558  -5.6662
    -5.2591  -4.7588  -4.1729  -2.2503   0.1162   3.0531   3.1046   4.0591

          k = 0.2222 0.3849 0.0000 ( 18624 PWs)   bands (ev):

   -15.5550 -14.2516 -12.6441 -10.1778  -9.6522  -8.3578  -7.0173  -6.0776
    -4.5938  -4.3849  -4.0398  -2.5174   1.0937   2.0339   2.2570   3.4518

          k = 0.2222 0.5132 0.0000 ( 18614 PWs)   bands (ev):

   -15.2608 -14.6477 -12.8080 -10.0355  -9.2124  -8.0234  -7.6144  -5.5958
    -4.7521  -4.6778  -4.3525  -2.8467   1.2864   2.5795   2.8666   3.1458

          k = 0.3333 0.5774 0.0000 ( 18624 PWs)   bands (ev):

   -14.9592 -14.9591 -12.9312  -9.4496  -9.4496  -8.0302  -7.8951  -5.1216
    -5.1216  -4.4983  -4.4982  -3.1168   2.3705   2.3705   2.7299   2.7299

     the Fermi energy is    -0.6572 ev

!    total energy              =     -49.98787162 Ry
     estimated scf accuracy    <       0.00000005 Ry
     smearing contrib. (-TS)   =       0.00025552 Ry
     internal energy E=F+TS    =     -49.98812715 Ry

     The total energy is F=E-TS. E is the sum of the following terms:
     one-electron contribution =    -178.87640128 Ry
     hartree contribution      =      93.95540012 Ry
     xc contribution           =     -23.14821061 Ry
     ewald contribution        =      58.08108463 Ry

     convergence has been achieved in   7 iterations

     Writing all to output data dir ../../outdir/borophene.save/

     init_run     :     16.20s CPU     -1.00s WALL (       1 calls)
     electrons    :    197.83s CPU    146.96s WALL (       1 calls)

     Called by init_run:
     wfcinit      :     14.44s CPU     -2.52s WALL (       1 calls)
     potinit      :      0.36s CPU      0.22s WALL (       1 calls)
     hinit0       :      1.18s CPU      1.04s WALL (       1 calls)

     Called by electrons:
     c_bands      :    162.73s CPU    135.78s WALL (       7 calls)
     sum_band     :     31.84s CPU      8.83s WALL (       7 calls)
     v_of_rho     :      2.42s CPU      1.36s WALL (       8 calls)
     newd         :      0.90s CPU      1.00s WALL (       8 calls)
     mix_rho      :      0.26s CPU      0.22s WALL (       7 calls)

     Called by c_bands:
     init_us_2    :      1.67s CPU      1.39s WALL (     180 calls)
     init_us_2:cp :      1.67s CPU      1.39s WALL (     180 calls)
     cegterg      :    159.32s CPU    133.10s WALL (      84 calls)

     Called by *egterg:
     cdiaghg      :      0.23s CPU      0.14s WALL (     355 calls)
     h_psi        :    154.33s CPU    130.21s WALL (     367 calls)
     s_psi        :      4.84s CPU      2.95s WALL (     367 calls)
     g_psi        :      0.59s CPU      0.55s WALL (     271 calls)

     Called by h_psi:
     h_psi:calbec :      6.70s CPU      4.20s WALL (     367 calls)
     vloc_psi     :    142.15s CPU    122.83s WALL (     367 calls)
     add_vuspsi   :      4.68s CPU      2.50s WALL (     367 calls)

     General routines
     calbec       :      8.79s CPU      5.56s WALL (     451 calls)
     fft          :      1.66s CPU      1.22s WALL (      88 calls)
     ffts         :      0.10s CPU      0.07s WALL (       7 calls)
     fftw         :    134.04s CPU    120.97s WALL (    9520 calls)

     Parallel routines

     PWSCF        :   3m34.22s CPU   2m26.39s WALL


   This run was terminated on:  11:31:29   3Jul2025            

=------------------------------------------------------------------------------=
   JOB DONE.
=------------------------------------------------------------------------------=
