
     Program PWSCF v.7.2 starts on  3Jul2025 at 10:54:50 

     This program is part of the open-source Quantum ESPRESSO suite
     for quantum simulation of materials; please cite
         "P. Giannozzi et al., J. Phys.:Condens. Matter 21 395502 (2009);
         "P. Giannozzi et al., J. Phys.:Condens. Matter 29 465901 (2017);
         "P. Giannozzi et al., J. Chem. Phys. 152 154105 (2020);
          URL http://www.quantum-espresso.org", 
     in publications or presentations arising from this work. More details at
     http://www.quantum-espresso.org/quote

     Parallel version (MPI & OpenMP), running on       2 processor cores
     Number of MPI processes:                 1
     Threads/MPI process:                     2

     MPI processes distributed on     1 nodes
     307 MiB available memory on the printing compute node when the environment starts

     Reading input from ../latticeparam/alpha_50_9.6.in

     Current dimensions of program PWSCF are:
     Max number of different atomic species (ntypx) = 10
     Max number of k-points (npk) =  40000
     Max angular momentum in pseudopotentials (lmaxx) =  4
     file B.pbesol-n-rrkjus_psl.1.0.0.UPF: wavefunction(s)  2S renormalized

     IMPORTANT: XC functional enforced from input :
     Exchange-correlation= PBESOL
                           (   1   4  10   8   0   0   0)
     Any further DFT definition will be discarded
     Please, verify this is what you really want


     Subspace diagonalization in iterative solution of the eigenvalue problem:
     a serial algorithm will be used


     G-vector sticks info
     --------------------
     sticks:   dense  smooth     PW     G-vecs:    dense   smooth      PW
     Sum        1273    1273    361                73323    73323   10929

     Using Slab Decomposition



     bravais-lattice index     =            4
     lattice parameter (alat)  =       9.6000  a.u.
     unit-cell volume          =    1532.4077 (a.u.)^3
     number of atoms/cell      =            8
     number of atomic types    =            1
     number of electrons       =        24.00
     number of Kohn-Sham states=           16
     kinetic-energy cutoff     =      50.0000  Ry
     charge density cutoff     =     200.0000  Ry
     scf convergence threshold =      1.0E-06
     mixing beta               =       0.7000
     number of iterations used =            8  plain     mixing
     Exchange-correlation= PBESOL
                           (   1   4  10   8   0   0   0)

     celldm(1)=   9.600000  celldm(2)=   0.000000  celldm(3)=   2.000000
     celldm(4)=   0.000000  celldm(5)=   0.000000  celldm(6)=   0.000000

     crystal axes: (cart. coord. in units of alat)
               a(1) = (   1.000000   0.000000   0.000000 )  
               a(2) = (  -0.500000   0.866025   0.000000 )  
               a(3) = (   0.000000   0.000000   2.000000 )  

     reciprocal axes: (cart. coord. in units 2 pi/alat)
               b(1) = (  1.000000  0.577350 -0.000000 )  
               b(2) = (  0.000000  1.154701  0.000000 )  
               b(3) = (  0.000000 -0.000000  0.500000 )  


     PseudoPot. # 1 for B  read from file:
     ../../pseudo/B.pbesol-n-rrkjus_psl.1.0.0.UPF
     MD5 check sum: a3839a09b1a4e02f2a06a66adc9253fc
     Pseudo is Ultrasoft + core correction, Zval =  3.0
     Generated using &quot;atomic&quot; code by A. Dal Corso  v.6.3MaX
     Using radial grid of 1059 points,  4 beta functions with: 
                l(1) =   0
                l(2) =   0
                l(3) =   1
                l(4) =   1
     Q(r) pseudized with 0 coefficients 


     atomic species   valence    mass     pseudopotential
        B              3.00    10.81100     B ( 1.00)

     24 Sym. Ops., with inversion, found



   Cartesian axes

     site n.     atom                  positions (alat units)
         1           B   tau(   1) = (   0.3333330   0.0000000   0.0000000  )
         2           B   tau(   2) = (   0.6666670   0.0000000   0.0000000  )
         3           B   tau(   3) = (  -0.1666665   0.2886748   0.0000000  )
         4           B   tau(   4) = (   0.1666665   0.2886748   0.0000000  )
         5           B   tau(   5) = (   0.5000005   0.2886748   0.0000000  )
         6           B   tau(   6) = (  -0.3333335   0.5773506   0.0000000  )
         7           B   tau(   7) = (  -0.0000005   0.5773506   0.0000000  )
         8           B   tau(   8) = (   0.3333335   0.5773506   0.0000000  )

     number of k points=    12  Marzari-Vanderbilt smearing, width (Ry)=  0.0350
                       cart. coord. in units 2pi/alat
        k(    1) = (   0.0000000   0.0000000   0.0000000), wk =   0.0246914
        k(    2) = (   0.0000000   0.1283001   0.0000000), wk =   0.1481481
        k(    3) = (   0.0000000   0.2566001   0.0000000), wk =   0.1481481
        k(    4) = (   0.0000000   0.3849002   0.0000000), wk =   0.1481481
        k(    5) = (   0.0000000   0.5132002   0.0000000), wk =   0.1481481
        k(    6) = (   0.1111111   0.1924501   0.0000000), wk =   0.1481481
        k(    7) = (   0.1111111   0.3207501   0.0000000), wk =   0.2962963
        k(    8) = (   0.1111111   0.4490502   0.0000000), wk =   0.2962963
        k(    9) = (   0.1111111   0.5773503   0.0000000), wk =   0.1481481
        k(   10) = (   0.2222222   0.3849002   0.0000000), wk =   0.1481481
        k(   11) = (   0.2222222   0.5132002   0.0000000), wk =   0.2962963
        k(   12) = (   0.3333333   0.5773503   0.0000000), wk =   0.0493827

     Dense  grid:    73323 G-vectors     FFT dimensions: (  45,  45,  90)

     Estimated max dynamical RAM per process >     138.36 MB

     Check: negative core charge=   -0.000004

     Initial potential from superposition of free atoms

     starting charge      23.9977, renormalised to      24.0000

     negative rho (up, down):  3.332E-04 0.000E+00
     Starting wfcs are   32 randomized atomic wfcs

     total cpu time spent up to now is        4.2 secs

     per-process dynamical memory:    82.7 Mb

     Self-consistent Calculation

     iteration #  1     ecut=    50.00 Ry     beta= 0.70
     Davidson diagonalization with overlap
     ethr =  1.00E-02,  avg # of iterations =  2.0

     negative rho (up, down):  2.359E-03 0.000E+00

     total cpu time spent up to now is       61.7 secs

     total energy              =     -49.87071929 Ry
     estimated scf accuracy    <       0.67720886 Ry

     iteration #  2     ecut=    50.00 Ry     beta= 0.70
     Davidson diagonalization with overlap
     ethr =  2.82E-03,  avg # of iterations =  2.0

     negative rho (up, down):  3.608E-03 0.000E+00

     total cpu time spent up to now is       70.5 secs

     total energy              =     -49.98138542 Ry
     estimated scf accuracy    <       0.01760217 Ry

     iteration #  3     ecut=    50.00 Ry     beta= 0.70
     Davidson diagonalization with overlap
     ethr =  7.33E-05,  avg # of iterations =  4.4

     negative rho (up, down):  3.995E-03 0.000E+00

     total cpu time spent up to now is       80.9 secs

     total energy              =     -49.98584802 Ry
     estimated scf accuracy    <       0.00466139 Ry

     iteration #  4     ecut=    50.00 Ry     beta= 0.70
     Davidson diagonalization with overlap
     ethr =  1.94E-05,  avg # of iterations =  3.2

     negative rho (up, down):  4.373E-03 0.000E+00

     total cpu time spent up to now is       76.9 secs

     total energy              =     -49.98686843 Ry
     estimated scf accuracy    <       0.00016932 Ry

     iteration #  5     ecut=    50.00 Ry     beta= 0.70
     Davidson diagonalization with overlap
     ethr =  7.06E-07,  avg # of iterations =  6.0

     negative rho (up, down):  4.408E-03 0.000E+00

     total cpu time spent up to now is       89.0 secs

     total energy              =     -49.98688744 Ry
     estimated scf accuracy    <       0.00001467 Ry

     iteration #  6     ecut=    50.00 Ry     beta= 0.70
     Davidson diagonalization with overlap
     ethr =  6.11E-08,  avg # of iterations =  3.1

     negative rho (up, down):  4.409E-03 0.000E+00

     total cpu time spent up to now is       98.4 secs

     End of self-consistent calculation

          k = 0.0000 0.0000 0.0000 (  9127 PWs)   bands (ev):

   -16.1900 -12.0885 -12.0067 -12.0066  -9.7723  -9.7723  -7.6390  -7.0555
    -2.1749  -2.1749  -0.6910  -0.1800  -0.1800   0.0767   0.0768   0.4602

          k = 0.0000 0.1283 0.0000 (  9149 PWs)   bands (ev):

   -16.1349 -12.7550 -12.0582 -11.3841  -9.8389  -9.6310  -7.4027  -6.9711
    -2.7796  -2.6885  -1.6362  -0.6224  -0.0242   0.6430   0.7308   1.0678

          k = 0.0000 0.2566 0.0000 (  9145 PWs)   bands (ev):

   -15.9728 -13.4366 -12.1720 -10.9748  -9.7441  -9.2593  -6.9313  -6.7207
    -3.8162  -3.5268  -2.7827  -1.1210  -0.2387   1.6805   1.9055   2.0583

          k = 0.0000 0.3849 0.0000 (  9149 PWs)   bands (ev):

   -15.7181 -14.0525 -12.2813 -10.9516  -9.2254  -8.7744  -6.6918  -6.3191
    -4.7790  -4.0574  -3.8091  -1.4655  -0.4587   2.6996   3.0185   3.0752

          k = 0.0000 0.5132 0.0000 (  9168 PWs)   bands (ev):

   -15.4380 -14.5176 -12.3444 -11.0139  -8.6664  -8.3730  -6.8954  -5.8488
    -5.4227  -4.5978  -4.1159  -1.6396  -0.5843   3.2499   3.5949   3.6999

          k = 0.1111 0.1925 0.0000 (  9135 PWs)   bands (ev):

   -16.0261 -13.2487 -12.1849 -10.9589  -9.9021  -9.3351  -7.0572  -6.8035
    -3.5608  -3.2758  -2.4317  -1.2747   0.3294   1.2022   1.2443   1.7225

          k = 0.1111 0.3208 0.0000 (  9136 PWs)   bands (ev):

   -15.8156 -13.8245 -12.3702 -10.6650  -9.7060  -8.8527  -6.7525  -6.4753
    -4.3897  -3.9400  -3.3792  -1.8254   0.3325   1.9979   2.0032   2.8289

          k = 0.1111 0.4491 0.0000 (  9153 PWs)   bands (ev):

   -15.5307 -14.3499 -12.5072 -10.6656  -9.1380  -8.3758  -6.9465  -6.0168
    -4.9773  -4.2588  -4.1938  -2.1351   0.1971   2.7025   3.1346   3.3775

          k = 0.1111 0.5774 0.0000 (  9166 PWs)   bands (ev):

   -15.3316 -14.6323 -12.5561 -10.6901  -8.7637  -8.1543  -7.2509  -5.6666
    -5.2384  -4.7555  -4.1516  -2.2353   0.1415   3.1216   3.1798   4.1057

          k = 0.2222 0.3849 0.0000 (  9139 PWs)   bands (ev):

   -15.5660 -14.2602 -12.6483 -10.1770  -9.6510  -8.3563  -7.0131  -6.0800
    -4.5717  -4.3644  -4.0330  -2.5040   1.1253   2.0676   2.3217   3.2868

          k = 0.2222 0.5132 0.0000 (  9166 PWs)   bands (ev):

   -15.2712 -14.6569 -12.8124 -10.0342  -9.2107  -8.0233  -7.6095  -5.5960
    -4.7320  -4.6739  -4.3319  -2.8350   1.3183   2.6508   2.9060   3.2219

          k = 0.3333 0.5774 0.0000 (  9189 PWs)   bands (ev):

   -14.9690 -14.9690 -12.9358  -9.4477  -9.4476  -8.0256  -7.8956  -5.1197
    -5.1196  -4.4783  -4.4783  -3.1066   2.4085   2.4085   2.8047   2.8047

     the Fermi energy is    -0.6344 ev

!    total energy              =     -49.98689162 Ry
     estimated scf accuracy    <       0.00000065 Ry
     smearing contrib. (-TS)   =       0.00023139 Ry
     internal energy E=F+TS    =     -49.98712301 Ry

     The total energy is F=E-TS. E is the sum of the following terms:
     one-electron contribution =    -179.09346715 Ry
     hartree contribution      =      94.08860477 Ry
     xc contribution           =     -23.18434750 Ry
     ewald contribution        =      58.20208688 Ry

     convergence has been achieved in   6 iterations

     Writing all to output data dir ../../outdir/borophene.save/

     init_run     :      5.61s CPU      4.11s WALL (       1 calls)
     electrons    :     77.59s CPU     94.22s WALL (       1 calls)

     Called by init_run:
     wfcinit      :      4.87s CPU      3.39s WALL (       1 calls)
     potinit      :      0.09s CPU      0.08s WALL (       1 calls)
     hinit0       :      0.56s CPU      0.53s WALL (       1 calls)

     Called by electrons:
     c_bands      :     61.62s CPU     81.38s WALL (       6 calls)
     sum_band     :     14.83s CPU     11.84s WALL (       6 calls)
     v_of_rho     :      0.78s CPU      0.63s WALL (       7 calls)
     newd         :      0.28s CPU      0.34s WALL (       7 calls)
     mix_rho      :      0.16s CPU      0.14s WALL (       6 calls)

     Called by c_bands:
     init_us_2    :      0.59s CPU      0.49s WALL (     156 calls)
     init_us_2:cp :      0.59s CPU      0.49s WALL (     156 calls)
     cegterg      :     60.72s CPU     80.62s WALL (      72 calls)

     Called by *egterg:
     cdiaghg      :      0.16s CPU      0.11s WALL (     321 calls)
     h_psi        :     60.70s CPU     80.64s WALL (     333 calls)
     s_psi        :      1.21s CPU      0.71s WALL (     333 calls)
     g_psi        :      0.18s CPU      0.15s WALL (     249 calls)

     Called by h_psi:
     h_psi:calbec :      1.80s CPU      1.30s WALL (     333 calls)
     vloc_psi     :     57.68s CPU     78.50s WALL (     333 calls)
     add_vuspsi   :      1.03s CPU      0.65s WALL (     333 calls)

     General routines
     calbec       :      2.31s CPU      1.70s WALL (     405 calls)
     fft          :      0.93s CPU      0.82s WALL (      77 calls)
     ffts         :      0.10s CPU      0.09s WALL (       6 calls)
     fftw         :     63.63s CPU     85.07s WALL (    8370 calls)

     Parallel routines

     PWSCF        :   1m23.28s CPU   1m38.50s WALL


   This run was terminated on:  10:56:29   3Jul2025            

=------------------------------------------------------------------------------=
   JOB DONE.
=------------------------------------------------------------------------------=
