
     Program PWSCF v.7.2 starts on  2Jul2025 at 11:55:21 

     This program is part of the open-source Quantum ESPRESSO suite
     for quantum simulation of materials; please cite
         "P. Giannozzi et al., J. Phys.:Condens. Matter 21 395502 (2009);
         "P. Giannozzi et al., J. Phys.:Condens. Matter 29 465901 (2017);
         "P. Giannozzi et al., J. Chem. Phys. 152 154105 (2020);
          URL http://www.quantum-espresso.org", 
     in publications or presentations arising from this work. More details at
     http://www.quantum-espresso.org/quote

     Parallel version (MPI & OpenMP), running on       2 processor cores
     Number of MPI processes:                 1
     Threads/MPI process:                     2

     MPI processes distributed on     1 nodes
     419 MiB available memory on the printing compute node when the environment starts

     Reading input from ../latticeparam/alpha_9.2.in

     Current dimensions of program PWSCF are:
     Max number of different atomic species (ntypx) = 10
     Max number of k-points (npk) =  40000
     Max angular momentum in pseudopotentials (lmaxx) =  4
     file B.pbesol-n-rrkjus_psl.1.0.0.UPF: wavefunction(s)  2S renormalized

     IMPORTANT: XC functional enforced from input :
     Exchange-correlation= PBESOL
                           (   1   4  10   8   0   0   0)
     Any further DFT definition will be discarded
     Please, verify this is what you really want


     Subspace diagonalization in iterative solution of the eigenvalue problem:
     a serial algorithm will be used


     G-vector sticks info
     --------------------
     sticks:   dense  smooth     PW     G-vecs:    dense   smooth      PW
     Sum        1639    1639    451               106785   106785   15621

     Using Slab Decomposition



     bravais-lattice index     =            4
     lattice parameter (alat)  =       9.2000  a.u.
     unit-cell volume          =    1348.7272 (a.u.)^3
     number of atoms/cell      =            8
     number of atomic types    =            1
     number of electrons       =        24.00
     number of Kohn-Sham states=           16
     kinetic-energy cutoff     =      70.0000  Ry
     charge density cutoff     =     280.0000  Ry
     scf convergence threshold =      1.0E-06
     mixing beta               =       0.7000
     number of iterations used =            8  plain     mixing
     Exchange-correlation= PBESOL
                           (   1   4  10   8   0   0   0)

     celldm(1)=   9.200000  celldm(2)=   0.000000  celldm(3)=   2.000000
     celldm(4)=   0.000000  celldm(5)=   0.000000  celldm(6)=   0.000000

     crystal axes: (cart. coord. in units of alat)
               a(1) = (   1.000000   0.000000   0.000000 )  
               a(2) = (  -0.500000   0.866025   0.000000 )  
               a(3) = (   0.000000   0.000000   2.000000 )  

     reciprocal axes: (cart. coord. in units 2 pi/alat)
               b(1) = (  1.000000  0.577350 -0.000000 )  
               b(2) = (  0.000000  1.154701  0.000000 )  
               b(3) = (  0.000000 -0.000000  0.500000 )  


     PseudoPot. # 1 for B  read from file:
     ../../pseudo/B.pbesol-n-rrkjus_psl.1.0.0.UPF
     MD5 check sum: a3839a09b1a4e02f2a06a66adc9253fc
     Pseudo is Ultrasoft + core correction, Zval =  3.0
     Generated using &quot;atomic&quot; code by A. Dal Corso  v.6.3MaX
     Using radial grid of 1059 points,  4 beta functions with: 
                l(1) =   0
                l(2) =   0
                l(3) =   1
                l(4) =   1
     Q(r) pseudized with 0 coefficients 


     atomic species   valence    mass     pseudopotential
        B              3.00    10.81100     B ( 1.00)

     24 Sym. Ops., with inversion, found



   Cartesian axes

     site n.     atom                  positions (alat units)
         1           B   tau(   1) = (   0.3333330   0.0000000   0.0000000  )
         2           B   tau(   2) = (   0.6666670   0.0000000   0.0000000  )
         3           B   tau(   3) = (  -0.1666665   0.2886748   0.0000000  )
         4           B   tau(   4) = (   0.1666665   0.2886748   0.0000000  )
         5           B   tau(   5) = (   0.5000005   0.2886748   0.0000000  )
         6           B   tau(   6) = (  -0.3333335   0.5773506   0.0000000  )
         7           B   tau(   7) = (  -0.0000005   0.5773506   0.0000000  )
         8           B   tau(   8) = (   0.3333335   0.5773506   0.0000000  )

     number of k points=    12  Marzari-Vanderbilt smearing, width (Ry)=  0.0350
                       cart. coord. in units 2pi/alat
        k(    1) = (   0.0000000   0.0000000   0.0000000), wk =   0.0246914
        k(    2) = (   0.0000000   0.1283001   0.0000000), wk =   0.1481481
        k(    3) = (   0.0000000   0.2566001   0.0000000), wk =   0.1481481
        k(    4) = (   0.0000000   0.3849002   0.0000000), wk =   0.1481481
        k(    5) = (   0.0000000   0.5132002   0.0000000), wk =   0.1481481
        k(    6) = (   0.1111111   0.1924501   0.0000000), wk =   0.1481481
        k(    7) = (   0.1111111   0.3207501   0.0000000), wk =   0.2962963
        k(    8) = (   0.1111111   0.4490502   0.0000000), wk =   0.2962963
        k(    9) = (   0.1111111   0.5773503   0.0000000), wk =   0.1481481
        k(   10) = (   0.2222222   0.3849002   0.0000000), wk =   0.1481481
        k(   11) = (   0.2222222   0.5132002   0.0000000), wk =   0.2962963
        k(   12) = (   0.3333333   0.5773503   0.0000000), wk =   0.0493827

     Dense  grid:   106785 G-vectors     FFT dimensions: (  50,  50, 100)

     Estimated max dynamical RAM per process >     200.41 MB

     Initial potential from superposition of free atoms

     starting charge      23.9977, renormalised to      24.0000

     negative rho (up, down):  1.059E-05 0.000E+00
     Starting wfcs are   32 randomized atomic wfcs

     total cpu time spent up to now is        5.3 secs

     per-process dynamical memory:   115.1 Mb

     Self-consistent Calculation

     iteration #  1     ecut=    70.00 Ry     beta= 0.70
     Davidson diagonalization with overlap
     ethr =  1.00E-02,  avg # of iterations =  2.4

     negative rho (up, down):  3.117E-04 0.000E+00

     total cpu time spent up to now is       17.2 secs

     total energy              =     -49.76751140 Ry
     estimated scf accuracy    <       0.96494535 Ry

     iteration #  2     ecut=    70.00 Ry     beta= 0.70
     Davidson diagonalization with overlap
     ethr =  4.02E-03,  avg # of iterations =  2.0

     negative rho (up, down):  6.256E-04 0.000E+00

     total cpu time spent up to now is       16.7 secs

     total energy              =     -49.92842741 Ry
     estimated scf accuracy    <       0.02835479 Ry

     iteration #  3     ecut=    70.00 Ry     beta= 0.70
     Davidson diagonalization with overlap
     ethr =  1.18E-04,  avg # of iterations =  5.4

     negative rho (up, down):  7.615E-04 0.000E+00

     total cpu time spent up to now is       30.8 secs

     total energy              =     -49.93604998 Ry
     estimated scf accuracy    <       0.00636005 Ry

     iteration #  4     ecut=    70.00 Ry     beta= 0.70
     Davidson diagonalization with overlap
     ethr =  2.65E-05,  avg # of iterations =  3.5

     negative rho (up, down):  9.033E-04 0.000E+00

     total cpu time spent up to now is       30.4 secs

     total energy              =     -49.93743703 Ry
     estimated scf accuracy    <       0.00020093 Ry

     iteration #  5     ecut=    70.00 Ry     beta= 0.70
     Davidson diagonalization with overlap
     ethr =  8.37E-07,  avg # of iterations =  4.6

     negative rho (up, down):  9.142E-04 0.000E+00

     total cpu time spent up to now is       43.2 secs

     total energy              =     -49.93746219 Ry
     estimated scf accuracy    <       0.00001967 Ry

     iteration #  6     ecut=    70.00 Ry     beta= 0.70
     Davidson diagonalization with overlap
     ethr =  8.20E-08,  avg # of iterations =  2.7

     negative rho (up, down):  9.141E-04 0.000E+00

     total cpu time spent up to now is       54.0 secs

     total energy              =     -49.93746789 Ry
     estimated scf accuracy    <       0.00000104 Ry

     iteration #  7     ecut=    70.00 Ry     beta= 0.70
     Davidson diagonalization with overlap
     ethr =  4.32E-09,  avg # of iterations =  2.7

     negative rho (up, down):  9.139E-04 0.000E+00

     total cpu time spent up to now is       52.6 secs

     End of self-consistent calculation

          k = 0.0000 0.0000 0.0000 ( 13405 PWs)   bands (ev):

   -16.3391 -12.0599 -12.0023 -12.0022  -9.5411  -9.5410  -7.5518  -7.1919
    -1.5137  -1.5137  -0.1770   0.3564   0.3565   0.9977   0.9977   1.0784

          k = 0.0000 0.1283 0.0000 ( 13365 PWs)   bands (ev):

   -16.2811 -12.7600 -12.0480 -11.3411  -9.6461  -9.4050  -7.2863  -7.0992
    -2.1488  -2.0586  -1.2330  -0.1270   0.5393   1.6277   1.7090   1.7455

          k = 0.0000 0.2566 0.0000 ( 13339 PWs)   bands (ev):

   -16.1104 -13.4647 -12.1510 -10.8915  -9.6194  -9.0441  -6.8241  -6.7825
    -3.2385  -2.9412  -2.4983  -0.6753   0.2861   2.8006   2.8416   3.0188

          k = 0.0000 0.3849 0.0000 ( 13335 PWs)   bands (ev):

   -15.8421 -14.1041 -12.2518 -10.8560  -9.1257  -8.5723  -6.5368  -6.3823
    -4.2383  -3.6295  -3.4996  -1.0544   0.0315   3.5135   4.0388   4.1217

          k = 0.0000 0.5132 0.0000 ( 13344 PWs)   bands (ev):

   -15.5467 -14.5899 -12.3106 -10.9241  -8.5638  -8.1880  -6.7315  -5.8630
    -4.8909  -4.4998  -3.5870  -1.2459  -0.1124   4.1905   4.9430   4.9537

          k = 0.1111 0.1925 0.0000 ( 13347 PWs)   bands (ev):

   -16.1665 -13.2700 -12.1674 -10.8894  -9.7480  -9.1263  -6.9151  -6.9141
    -2.9593  -2.6922  -2.1092  -0.8531   0.9380   1.8659   2.3383   2.7854

          k = 0.1111 0.3208 0.0000 ( 13332 PWs)   bands (ev):

   -15.9449 -13.8663 -12.3484 -10.5620  -9.5849  -8.6680  -6.5971  -6.5543
    -3.8251  -3.3923  -3.1530  -1.4636   0.9264   2.7508   3.2289   3.3683

          k = 0.1111 0.4491 0.0000 ( 13342 PWs)   bands (ev):

   -15.6449 -14.4133 -12.4851 -10.5581  -9.0104  -8.2148  -6.7753  -6.0492
    -4.4571  -4.1229  -3.6632  -1.8054   0.7661   3.8902   4.0230   4.1924

          k = 0.1111 0.5774 0.0000 ( 13336 PWs)   bands (ev):

   -15.4347 -14.7090 -12.5343 -10.5844  -8.6271  -8.0076  -7.0696  -5.6614
    -4.7277  -4.6725  -3.6367  -1.9159   0.7017   4.4976   4.7176   4.8123

          k = 0.2222 0.3849 0.0000 ( 13336 PWs)   bands (ev):

   -15.6822 -14.3182 -12.6351 -10.0450  -9.5282  -8.2049  -6.8399  -6.1192
    -4.0381  -3.8694  -3.8535  -2.2193   1.8171   2.8122   3.7025   3.8818

          k = 0.2222 0.5132 0.0000 ( 13339 PWs)   bands (ev):

   -15.3722 -14.7316 -12.8063  -9.8971  -9.0629  -7.8943  -7.4311  -5.5856
    -4.5750  -4.2334  -3.8299  -2.5863   2.0171   3.7717   4.1996   4.5421

          k = 0.3333 0.5774 0.0000 ( 13356 PWs)   bands (ev):

   -15.0562 -15.0561 -12.9370  -9.2893  -9.2893  -7.8632  -7.7774  -5.0617
    -5.0617  -3.9857  -3.9856  -2.8900   3.2378   3.2379   4.4476   4.4476

     the Fermi energy is    -0.1337 ev

!    total energy              =     -49.93746817 Ry
     estimated scf accuracy    <       0.00000004 Ry
     smearing contrib. (-TS)   =      -0.00023610 Ry
     internal energy E=F+TS    =     -49.93723207 Ry

     The total energy is F=E-TS. E is the sum of the following terms:
     one-electron contribution =    -183.85838713 Ry
     hartree contribution      =      97.02553785 Ry
     xc contribution           =     -23.83699519 Ry
     ewald contribution        =      60.73261240 Ry

     convergence has been achieved in   7 iterations

     Writing all to output data dir ../../outdir/borophene.save/

     init_run     :      6.86s CPU      5.25s WALL (       1 calls)
     electrons    :    107.79s CPU     47.28s WALL (       1 calls)

     Called by init_run:
     wfcinit      :      5.96s CPU      4.25s WALL (       1 calls)
     potinit      :      0.14s CPU      0.12s WALL (       1 calls)
     hinit0       :      0.62s CPU      0.72s WALL (       1 calls)

     Called by electrons:
     c_bands      :     87.36s CPU     42.83s WALL (       7 calls)
     sum_band     :     18.94s CPU      3.09s WALL (       7 calls)
     v_of_rho     :      0.96s CPU      0.79s WALL (       8 calls)
     newd         :      0.50s CPU      0.58s WALL (       8 calls)
     mix_rho      :      0.17s CPU      0.13s WALL (       7 calls)

     Called by c_bands:
     init_us_2    :      0.90s CPU      0.80s WALL (     180 calls)
     init_us_2:cp :      0.89s CPU      0.80s WALL (     180 calls)
     cegterg      :     85.81s CPU     41.60s WALL (      84 calls)

     Called by *egterg:
     cdiaghg      :      0.19s CPU      0.13s WALL (     363 calls)
     h_psi        :     84.03s CPU     40.55s WALL (     375 calls)
     s_psi        :      1.75s CPU      1.07s WALL (     375 calls)
     g_psi        :      0.25s CPU      0.24s WALL (     279 calls)

     Called by h_psi:
     h_psi:calbec :      2.41s CPU      2.17s WALL (     375 calls)
     vloc_psi     :     79.62s CPU     37.06s WALL (     375 calls)
     add_vuspsi   :      1.70s CPU      1.03s WALL (     375 calls)

     General routines
     calbec       :      3.18s CPU      2.80s WALL (     459 calls)
     fft          :      0.70s CPU      0.78s WALL (      88 calls)
     ffts         :      0.04s CPU      0.03s WALL (       7 calls)
     fftw         :     77.04s CPU     28.97s WALL (    9676 calls)

     Parallel routines

     PWSCF        :   1m54.75s CPU     52.71s WALL


   This run was terminated on:  11:56:14   2Jul2025            

=------------------------------------------------------------------------------=
   JOB DONE.
=------------------------------------------------------------------------------=
