
     Program PWSCF v.7.2 starts on  3Jul2025 at 12:30:55 

     This program is part of the open-source Quantum ESPRESSO suite
     for quantum simulation of materials; please cite
         "P. Giannozzi et al., J. Phys.:Condens. Matter 21 395502 (2009);
         "P. Giannozzi et al., J. Phys.:Condens. Matter 29 465901 (2017);
         "P. Giannozzi et al., J. Chem. Phys. 152 154105 (2020);
          URL http://www.quantum-espresso.org", 
     in publications or presentations arising from this work. More details at
     http://www.quantum-espresso.org/quote

     Parallel version (MPI & OpenMP), running on       2 processor cores
     Number of MPI processes:                 1
     Threads/MPI process:                     2

     MPI processes distributed on     1 nodes
     394 MiB available memory on the printing compute node when the environment starts

     Reading input from ../latticeparam/alpha_10_9.64.in

     Current dimensions of program PWSCF are:
     Max number of different atomic species (ntypx) = 10
     Max number of k-points (npk) =  40000
     Max angular momentum in pseudopotentials (lmaxx) =  4
     file B.pbesol-n-rrkjus_psl.1.0.0.UPF: wavefunction(s)  2S renormalized

     IMPORTANT: XC functional enforced from input :
     Exchange-correlation= PBESOL
                           (   1   4  10   8   0   0   0)
     Any further DFT definition will be discarded
     Please, verify this is what you really want


     Subspace diagonalization in iterative solution of the eigenvalue problem:
     a serial algorithm will be used


     G-vector sticks info
     --------------------
     sticks:   dense  smooth     PW     G-vecs:    dense   smooth      PW
     Sum        1789    1789    499               122815   122815   17639

     Using Slab Decomposition



     bravais-lattice index     =            4
     lattice parameter (alat)  =       9.6400  a.u.
     unit-cell volume          =    1551.6427 (a.u.)^3
     number of atoms/cell      =            8
     number of atomic types    =            1
     number of electrons       =        24.00
     number of Kohn-Sham states=           16
     kinetic-energy cutoff     =      70.0000  Ry
     charge density cutoff     =     280.0000  Ry
     scf convergence threshold =      1.0E-06
     mixing beta               =       0.7000
     number of iterations used =            8  plain     mixing
     Exchange-correlation= PBESOL
                           (   1   4  10   8   0   0   0)

     celldm(1)=   9.640000  celldm(2)=   0.000000  celldm(3)=   2.000000
     celldm(4)=   0.000000  celldm(5)=   0.000000  celldm(6)=   0.000000

     crystal axes: (cart. coord. in units of alat)
               a(1) = (   1.000000   0.000000   0.000000 )  
               a(2) = (  -0.500000   0.866025   0.000000 )  
               a(3) = (   0.000000   0.000000   2.000000 )  

     reciprocal axes: (cart. coord. in units 2 pi/alat)
               b(1) = (  1.000000  0.577350 -0.000000 )  
               b(2) = (  0.000000  1.154701  0.000000 )  
               b(3) = (  0.000000 -0.000000  0.500000 )  


     PseudoPot. # 1 for B  read from file:
     ../../pseudo/B.pbesol-n-rrkjus_psl.1.0.0.UPF
     MD5 check sum: a3839a09b1a4e02f2a06a66adc9253fc
     Pseudo is Ultrasoft + core correction, Zval =  3.0
     Generated using &quot;atomic&quot; code by A. Dal Corso  v.6.3MaX
     Using radial grid of 1059 points,  4 beta functions with: 
                l(1) =   0
                l(2) =   0
                l(3) =   1
                l(4) =   1
     Q(r) pseudized with 0 coefficients 


     atomic species   valence    mass     pseudopotential
        B              3.00    10.81100     B ( 1.00)

     24 Sym. Ops., with inversion, found



   Cartesian axes

     site n.     atom                  positions (alat units)
         1           B   tau(   1) = (   0.3333330   0.0000000   0.0000000  )
         2           B   tau(   2) = (   0.6666670   0.0000000   0.0000000  )
         3           B   tau(   3) = (  -0.1666665   0.2886748   0.0000000  )
         4           B   tau(   4) = (   0.1666665   0.2886748   0.0000000  )
         5           B   tau(   5) = (   0.5000005   0.2886748   0.0000000  )
         6           B   tau(   6) = (  -0.3333335   0.5773506   0.0000000  )
         7           B   tau(   7) = (  -0.0000005   0.5773506   0.0000000  )
         8           B   tau(   8) = (   0.3333335   0.5773506   0.0000000  )

     number of k points=    14  Marzari-Vanderbilt smearing, width (Ry)=  0.0350
                       cart. coord. in units 2pi/alat
        k(    1) = (   0.0000000   0.0000000   0.0000000), wk =   0.0200000
        k(    2) = (   0.0000000   0.1154701   0.0000000), wk =   0.1200000
        k(    3) = (   0.0000000   0.2309401   0.0000000), wk =   0.1200000
        k(    4) = (   0.0000000   0.3464102   0.0000000), wk =   0.1200000
        k(    5) = (   0.0000000   0.4618802   0.0000000), wk =   0.1200000
        k(    6) = (   0.0000000  -0.5773503   0.0000000), wk =   0.0600000
        k(    7) = (   0.1000000   0.1732051   0.0000000), wk =   0.1200000
        k(    8) = (   0.1000000   0.2886751   0.0000000), wk =   0.2400000
        k(    9) = (   0.1000000   0.4041452   0.0000000), wk =   0.2400000
        k(   10) = (   0.1000000   0.5196152   0.0000000), wk =   0.2400000
        k(   11) = (   0.2000000   0.3464102   0.0000000), wk =   0.1200000
        k(   12) = (   0.2000000   0.4618802   0.0000000), wk =   0.2400000
        k(   13) = (   0.2000000   0.5773503   0.0000000), wk =   0.1200000
        k(   14) = (   0.3000000   0.5196152   0.0000000), wk =   0.1200000

     Dense  grid:   122815 G-vectors     FFT dimensions: (  54,  54, 108)

     Estimated max dynamical RAM per process >     239.83 MB

     Initial potential from superposition of free atoms

     starting charge      23.9977, renormalised to      24.0000

     negative rho (up, down):  4.948E-05 0.000E+00
     Starting wfcs are   32 randomized atomic wfcs

     total cpu time spent up to now is       10.4 secs

     per-process dynamical memory:   142.3 Mb

     Self-consistent Calculation

     iteration #  1     ecut=    70.00 Ry     beta= 0.70
     Davidson diagonalization with overlap
     ethr =  1.00E-02,  avg # of iterations =  2.0

     negative rho (up, down):  3.652E-04 0.000E+00

     total cpu time spent up to now is       29.2 secs

     total energy              =     -49.87567312 Ry
     estimated scf accuracy    <       0.65260120 Ry

     iteration #  2     ecut=    70.00 Ry     beta= 0.70
     Davidson diagonalization with overlap
     ethr =  2.72E-03,  avg # of iterations =  2.0

     negative rho (up, down):  6.464E-04 0.000E+00

     total cpu time spent up to now is       35.0 secs

     total energy              =     -49.98182154 Ry
     estimated scf accuracy    <       0.01687057 Ry

     iteration #  3     ecut=    70.00 Ry     beta= 0.70
     Davidson diagonalization with overlap
     ethr =  7.03E-05,  avg # of iterations =  3.0

     negative rho (up, down):  7.437E-04 0.000E+00

     total cpu time spent up to now is       53.3 secs

     total energy              =     -49.98613340 Ry
     estimated scf accuracy    <       0.00452617 Ry

     iteration #  4     ecut=    70.00 Ry     beta= 0.70
     Davidson diagonalization with overlap
     ethr =  1.89E-05,  avg # of iterations =  3.9

     negative rho (up, down):  8.437E-04 0.000E+00

     total cpu time spent up to now is       60.0 secs

     total energy              =     -49.98710921 Ry
     estimated scf accuracy    <       0.00015976 Ry

     iteration #  5     ecut=    70.00 Ry     beta= 0.70
     Davidson diagonalization with overlap
     ethr =  6.66E-07,  avg # of iterations =  5.6

     negative rho (up, down):  8.524E-04 0.000E+00

     total cpu time spent up to now is       81.5 secs

     total energy              =     -49.98712785 Ry
     estimated scf accuracy    <       0.00001526 Ry

     iteration #  6     ecut=    70.00 Ry     beta= 0.70
     Davidson diagonalization with overlap
     ethr =  6.36E-08,  avg # of iterations =  2.4

     negative rho (up, down):  8.527E-04 0.000E+00

     total cpu time spent up to now is       99.9 secs

     End of self-consistent calculation

          k = 0.0000 0.0000 0.0000 ( 15261 PWs)   bands (ev):

   -16.1682 -12.0829 -11.9991 -11.9991  -9.7871  -9.7871  -7.6425  -7.0420
    -2.2303  -2.2303  -0.7369  -0.2291  -0.2291  -0.0039  -0.0039   0.4030

          k = 0.0000 0.1155 0.0000 ( 15323 PWs)   bands (ev):

   -16.1238 -12.6764 -12.0420 -11.4399  -9.8429  -9.6714  -7.4492  -6.9742
    -2.7376  -2.6603  -1.5564  -0.6124  -0.0644   0.4657   0.5412   0.9189

          k = 0.0000 0.2309 0.0000 ( 15336 PWs)   bands (ev):

   -15.9924 -13.2938 -12.1417 -11.0206  -9.8060  -9.3604  -7.0311  -6.7726
    -3.6555  -3.4185  -2.5877  -1.0742  -0.2384   1.3681   1.5662   1.7754

          k = 0.0000 0.3464 0.0000 ( 15372 PWs)   bands (ev):

   -15.7824 -13.8655 -12.2469 -10.9380  -9.4103  -8.9348  -6.7199  -6.4454
    -4.5565  -4.0015  -3.5370  -1.4182  -0.4454   2.2993   2.6286   2.7696

          k = 0.0000 0.4619 0.0000 ( 15386 PWs)   bands (ev):

   -15.5232 -14.3475 -12.3215 -10.9949  -8.8622  -8.5145  -6.7968  -6.0258
    -5.2675  -4.3380  -4.1714  -1.6272  -0.5914   3.0339   3.5403   3.5502

          k = 0.0000-0.5774 0.0000 ( 15414 PWs)   bands (ev):

   -15.3593 -14.5866 -12.3481 -11.0256  -8.5644  -8.3169  -6.9739  -5.7340
    -5.5625  -4.7580  -4.1466  -1.6972  -0.6430   3.0525   3.5631   3.9745

          k = 0.1000 0.1732 0.0000 ( 15337 PWs)   bands (ev):

   -16.0358 -13.1245 -12.1441 -11.0495  -9.9043  -9.4291  -7.1485  -6.8394
    -3.4283  -3.1836  -2.2765  -1.1783   0.2213   1.0025   1.0584   1.3851

          k = 0.1000 0.2887 0.0000 ( 15350 PWs)   bands (ev):

   -15.8641 -13.6540 -12.3025 -10.7398  -9.7878  -9.0154  -6.8086  -6.5740
    -4.2306  -3.8207  -3.1445  -1.6895   0.2229   1.7033   1.7401   2.5326

          k = 0.1000 0.4041 0.0000 ( 15363 PWs)   bands (ev):

   -15.6231 -14.1567 -12.4367 -10.7072  -9.3219  -8.5617  -6.8072  -6.1932
    -4.8592  -4.1987  -3.9787  -2.0128   0.0841   2.3845   2.7227   3.2625

          k = 0.1000 0.5196 0.0000 ( 15348 PWs)   bands (ev):

   -15.3742 -14.5420 -12.5103 -10.7427  -8.8304  -8.2305  -7.1373  -5.7750
    -5.2650  -4.6346  -4.1999  -2.1698  -0.0049   2.8930   3.1876   3.7744

          k = 0.2000 0.3464 0.0000 ( 15335 PWs)   bands (ev):

   -15.6579 -14.0670 -12.5450 -10.3264  -9.7478  -8.5533  -6.8480  -6.2511
    -4.5931  -4.2552  -3.7691  -2.3175   0.8649   1.8199   2.0482   3.1905

          k = 0.2000 0.4619 0.0000 ( 15348 PWs)   bands (ev):

   -15.3961 -14.4671 -12.7209 -10.1792  -9.3551  -8.1675  -7.3107  -5.8305
    -4.7614  -4.4101  -4.3872  -2.6814   1.0233   2.3998   2.5594   3.3657

          k = 0.2000 0.5774 0.0000 ( 15333 PWs)   bands (ev):

   -15.2122 -14.6997 -12.7824 -10.1738  -9.0275  -8.0099  -7.6613  -5.5141
    -4.9025  -4.8093  -4.3009  -2.7961   1.0180   2.6468   2.9442   3.3008

          k = 0.3000 0.5196 0.0000 ( 15347 PWs)   bands (ev):

   -15.1249 -14.7759 -12.8966  -9.6744  -9.3607  -7.9373  -7.8919  -5.3945
    -4.8565  -4.5861  -4.4771  -3.0579   1.9029   2.5158   2.5214   2.8751

     the Fermi energy is    -0.6797 ev

!    total energy              =     -49.98713209 Ry
     estimated scf accuracy    <       0.00000068 Ry
     smearing contrib. (-TS)   =       0.00048904 Ry
     internal energy E=F+TS    =     -49.98762112 Ry

     The total energy is F=E-TS. E is the sum of the following terms:
     one-electron contribution =    -178.64492599 Ry
     hartree contribution      =      93.81407797 Ry
     xc contribution           =     -23.11735756 Ry
     ewald contribution        =      57.96058445 Ry

     convergence has been achieved in   6 iterations

     Writing all to output data dir ../../outdir/borophene.save/

     init_run     :     15.21s CPU     10.30s WALL (       1 calls)
     electrons    :    158.36s CPU     89.51s WALL (       1 calls)

     Called by init_run:
     wfcinit      :     13.90s CPU      9.07s WALL (       1 calls)
     potinit      :      0.26s CPU      0.23s WALL (       1 calls)
     hinit0       :      0.87s CPU      0.77s WALL (       1 calls)

     Called by electrons:
     c_bands      :    128.54s CPU     78.82s WALL (       6 calls)
     sum_band     :     27.68s CPU      8.76s WALL (       6 calls)
     v_of_rho     :      1.50s CPU      1.14s WALL (       7 calls)
     newd         :      0.68s CPU      0.86s WALL (       7 calls)
     mix_rho      :      0.20s CPU      0.19s WALL (       6 calls)

     Called by c_bands:
     init_us_2    :      1.56s CPU      1.39s WALL (     182 calls)
     init_us_2:cp :      1.56s CPU      1.38s WALL (     182 calls)
     cegterg      :    125.79s CPU     76.64s WALL (      84 calls)

     Called by *egterg:
     cdiaghg      :      0.25s CPU      0.20s WALL (     348 calls)
     h_psi        :    125.34s CPU     75.73s WALL (     362 calls)
     s_psi        :      3.61s CPU      2.14s WALL (     362 calls)
     g_psi        :      0.36s CPU      0.35s WALL (     264 calls)

     Called by h_psi:
     h_psi:calbec :      3.40s CPU      3.08s WALL (     362 calls)
     vloc_psi     :    118.03s CPU     82.06s WALL (     362 calls)
     add_vuspsi   :      3.40s CPU     -9.95s WALL (     362 calls)

     General routines
     calbec       :      4.54s CPU      4.03s WALL (     446 calls)
     fft          :      1.12s CPU      0.91s WALL (      77 calls)
     ffts         :      0.06s CPU      0.05s WALL (       6 calls)
     fftw         :    112.40s CPU     67.14s WALL (    9702 calls)

     Parallel routines

     PWSCF        :   2m53.76s CPU   1m40.31s WALL


   This run was terminated on:  12:32:35   3Jul2025            

=------------------------------------------------------------------------------=
   JOB DONE.
=------------------------------------------------------------------------------=
