
     Program PWSCF v.7.2 starts on  3Jul2025 at 11:11:49 

     This program is part of the open-source Quantum ESPRESSO suite
     for quantum simulation of materials; please cite
         "P. Giannozzi et al., J. Phys.:Condens. Matter 21 395502 (2009);
         "P. Giannozzi et al., J. Phys.:Condens. Matter 29 465901 (2017);
         "P. Giannozzi et al., J. Chem. Phys. 152 154105 (2020);
          URL http://www.quantum-espresso.org", 
     in publications or presentations arising from this work. More details at
     http://www.quantum-espresso.org/quote

     Parallel version (MPI & OpenMP), running on       2 processor cores
     Number of MPI processes:                 1
     Threads/MPI process:                     2

     MPI processes distributed on     1 nodes
     386 MiB available memory on the printing compute node when the environment starts

     Reading input from ../latticeparam/alpha_70_9.56.in

     Current dimensions of program PWSCF are:
     Max number of different atomic species (ntypx) = 10
     Max number of k-points (npk) =  40000
     Max angular momentum in pseudopotentials (lmaxx) =  4
     file B.pbesol-n-rrkjus_psl.1.0.0.UPF: wavefunction(s)  2S renormalized

     IMPORTANT: XC functional enforced from input :
     Exchange-correlation= PBESOL
                           (   1   4  10   8   0   0   0)
     Any further DFT definition will be discarded
     Please, verify this is what you really want


     Subspace diagonalization in iterative solution of the eigenvalue problem:
     a serial algorithm will be used


     G-vector sticks info
     --------------------
     sticks:   dense  smooth     PW     G-vecs:    dense   smooth      PW
     Sum        1765    1765    499               119609   119609   17423

     Using Slab Decomposition



     bravais-lattice index     =            4
     lattice parameter (alat)  =       9.5600  a.u.
     unit-cell volume          =    1513.3323 (a.u.)^3
     number of atoms/cell      =            8
     number of atomic types    =            1
     number of electrons       =        24.00
     number of Kohn-Sham states=           16
     kinetic-energy cutoff     =      70.0000  Ry
     charge density cutoff     =     280.0000  Ry
     scf convergence threshold =      1.0E-06
     mixing beta               =       0.7000
     number of iterations used =            8  plain     mixing
     Exchange-correlation= PBESOL
                           (   1   4  10   8   0   0   0)

     celldm(1)=   9.560000  celldm(2)=   0.000000  celldm(3)=   2.000000
     celldm(4)=   0.000000  celldm(5)=   0.000000  celldm(6)=   0.000000

     crystal axes: (cart. coord. in units of alat)
               a(1) = (   1.000000   0.000000   0.000000 )  
               a(2) = (  -0.500000   0.866025   0.000000 )  
               a(3) = (   0.000000   0.000000   2.000000 )  

     reciprocal axes: (cart. coord. in units 2 pi/alat)
               b(1) = (  1.000000  0.577350 -0.000000 )  
               b(2) = (  0.000000  1.154701  0.000000 )  
               b(3) = (  0.000000 -0.000000  0.500000 )  


     PseudoPot. # 1 for B  read from file:
     ../../pseudo/B.pbesol-n-rrkjus_psl.1.0.0.UPF
     MD5 check sum: a3839a09b1a4e02f2a06a66adc9253fc
     Pseudo is Ultrasoft + core correction, Zval =  3.0
     Generated using &quot;atomic&quot; code by A. Dal Corso  v.6.3MaX
     Using radial grid of 1059 points,  4 beta functions with: 
                l(1) =   0
                l(2) =   0
                l(3) =   1
                l(4) =   1
     Q(r) pseudized with 0 coefficients 


     atomic species   valence    mass     pseudopotential
        B              3.00    10.81100     B ( 1.00)

     24 Sym. Ops., with inversion, found



   Cartesian axes

     site n.     atom                  positions (alat units)
         1           B   tau(   1) = (   0.3333330   0.0000000   0.0000000  )
         2           B   tau(   2) = (   0.6666670   0.0000000   0.0000000  )
         3           B   tau(   3) = (  -0.1666665   0.2886748   0.0000000  )
         4           B   tau(   4) = (   0.1666665   0.2886748   0.0000000  )
         5           B   tau(   5) = (   0.5000005   0.2886748   0.0000000  )
         6           B   tau(   6) = (  -0.3333335   0.5773506   0.0000000  )
         7           B   tau(   7) = (  -0.0000005   0.5773506   0.0000000  )
         8           B   tau(   8) = (   0.3333335   0.5773506   0.0000000  )

     number of k points=    12  Marzari-Vanderbilt smearing, width (Ry)=  0.0350
                       cart. coord. in units 2pi/alat
        k(    1) = (   0.0000000   0.0000000   0.0000000), wk =   0.0246914
        k(    2) = (   0.0000000   0.1283001   0.0000000), wk =   0.1481481
        k(    3) = (   0.0000000   0.2566001   0.0000000), wk =   0.1481481
        k(    4) = (   0.0000000   0.3849002   0.0000000), wk =   0.1481481
        k(    5) = (   0.0000000   0.5132002   0.0000000), wk =   0.1481481
        k(    6) = (   0.1111111   0.1924501   0.0000000), wk =   0.1481481
        k(    7) = (   0.1111111   0.3207501   0.0000000), wk =   0.2962963
        k(    8) = (   0.1111111   0.4490502   0.0000000), wk =   0.2962963
        k(    9) = (   0.1111111   0.5773503   0.0000000), wk =   0.1481481
        k(   10) = (   0.2222222   0.3849002   0.0000000), wk =   0.1481481
        k(   11) = (   0.2222222   0.5132002   0.0000000), wk =   0.2962963
        k(   12) = (   0.3333333   0.5773503   0.0000000), wk =   0.0493827

     Dense  grid:   119609 G-vectors     FFT dimensions: (  54,  54, 108)

     Estimated max dynamical RAM per process >     226.94 MB

     Initial potential from superposition of free atoms

     starting charge      23.9977, renormalised to      24.0000

     negative rho (up, down):  4.304E-05 0.000E+00
     Starting wfcs are   32 randomized atomic wfcs

     total cpu time spent up to now is        8.3 secs

     per-process dynamical memory:   131.2 Mb

     Self-consistent Calculation

     iteration #  1     ecut=    70.00 Ry     beta= 0.70
     Davidson diagonalization with overlap
     ethr =  1.00E-02,  avg # of iterations =  2.0

     negative rho (up, down):  3.685E-04 0.000E+00

     total cpu time spent up to now is        9.3 secs

     total energy              =     -49.86787444 Ry
     estimated scf accuracy    <       0.70088593 Ry

     iteration #  2     ecut=    70.00 Ry     beta= 0.70
     Davidson diagonalization with overlap
     ethr =  2.92E-03,  avg # of iterations =  2.0

     negative rho (up, down):  6.488E-04 0.000E+00

     total cpu time spent up to now is       23.4 secs

     total energy              =     -49.98216131 Ry
     estimated scf accuracy    <       0.01824526 Ry

     iteration #  3     ecut=    70.00 Ry     beta= 0.70
     Davidson diagonalization with overlap
     ethr =  7.60E-05,  avg # of iterations =  4.7

     negative rho (up, down):  7.491E-04 0.000E+00

     total cpu time spent up to now is       41.8 secs

     total energy              =     -49.98684492 Ry
     estimated scf accuracy    <       0.00475567 Ry

     iteration #  4     ecut=    70.00 Ry     beta= 0.70
     Davidson diagonalization with overlap
     ethr =  1.98E-05,  avg # of iterations =  3.2

     negative rho (up, down):  8.540E-04 0.000E+00

     total cpu time spent up to now is      107.1 secs

     total energy              =     -49.98788090 Ry
     estimated scf accuracy    <       0.00016703 Ry

     iteration #  5     ecut=    70.00 Ry     beta= 0.70
     Davidson diagonalization with overlap
     ethr =  6.96E-07,  avg # of iterations =  6.2

     negative rho (up, down):  8.630E-04 0.000E+00

     total cpu time spent up to now is      127.4 secs

     total energy              =     -49.98790044 Ry
     estimated scf accuracy    <       0.00001635 Ry

     iteration #  6     ecut=    70.00 Ry     beta= 0.70
     Davidson diagonalization with overlap
     ethr =  6.81E-08,  avg # of iterations =  2.6

     negative rho (up, down):  8.633E-04 0.000E+00

     total cpu time spent up to now is      142.4 secs

     End of self-consistent calculation

          k = 0.0000 0.0000 0.0000 ( 14985 PWs)   bands (ev):

   -16.2042 -12.0839 -12.0042 -12.0042  -9.7483  -9.7482  -7.6271  -7.0687
    -2.1098  -2.1098  -0.6427  -0.1289  -0.1289   0.1657   0.1657   0.5191

          k = 0.0000 0.1283 0.0000 ( 14978 PWs)   bands (ev):

   -16.1488 -12.7538 -12.0552 -11.3778  -9.8183  -9.6074  -7.3882  -6.9835
    -2.7175  -2.6264  -1.5981  -0.5753   0.0296   0.7381   0.8251   1.1324

          k = 0.0000 0.2566 0.0000 ( 14986 PWs)   bands (ev):

   -15.9858 -13.4380 -12.1682 -10.9646  -9.7297  -9.2365  -6.9138  -6.7308
    -3.7590  -3.4688  -2.7559  -1.0786  -0.1884   1.7894   2.0126   2.1329

          k = 0.0000 0.3849 0.0000 ( 14978 PWs)   bands (ev):

   -15.7297 -14.0564 -12.2768 -10.9403  -9.2129  -8.7525  -6.6738  -6.3254
    -4.7254  -4.0017  -3.7922  -1.4264  -0.4116   2.8277   3.1990   3.2971

          k = 0.0000 0.5132 0.0000 ( 14964 PWs)   bands (ev):

   -15.4480 -14.5237 -12.3395 -11.0031  -8.6535  -8.3526  -6.8765  -5.8504
    -5.3699  -4.5885  -4.0629  -1.6021  -0.5388   3.4086   3.7456   3.8737

          k = 0.1111 0.1925 0.0000 ( 14995 PWs)   bands (ev):

   -16.0394 -13.2494 -12.1813 -10.9499  -9.8850  -9.3130  -7.0403  -6.8144
    -3.5013  -3.2181  -2.4013  -1.2344   0.3872   1.2660   1.3502   1.8247

          k = 0.1111 0.3208 0.0000 ( 14983 PWs)   bands (ev):

   -15.8277 -13.8274 -12.3664 -10.6528  -9.6917  -8.8326  -6.7344  -6.4831
    -4.3336  -3.8856  -3.3579  -1.7907   0.3892   2.0700   2.1254   3.0104

          k = 0.1111 0.4491 0.0000 ( 14966 PWs)   bands (ev):

   -15.5413 -14.3551 -12.5035 -10.6531  -9.1229  -8.3577  -6.9268  -6.0201
    -4.9256  -4.2461  -4.1407  -2.1035   0.2515   2.8429   3.2198   3.5592

          k = 0.1111 0.5774 0.0000 ( 14950 PWs)   bands (ev):

   -15.3410 -14.6389 -12.5524 -10.6778  -8.7476  -8.1375  -7.2302  -5.6665
    -5.1877  -4.7477  -4.0999  -2.2047   0.1952   3.2702   3.3404   4.2035

          k = 0.2222 0.3849 0.0000 ( 14977 PWs)   bands (ev):

   -15.5768 -14.2648 -12.6454 -10.1620  -9.6366  -8.3390  -6.9933  -6.0840
    -4.5185  -4.3135  -4.0178  -2.4765   1.1910   2.1396   2.4602   3.4690

          k = 0.2222 0.5132 0.0000 ( 14967 PWs)   bands (ev):

   -15.2804 -14.6633 -12.8103 -10.0187  -9.1939  -8.0080  -7.5892  -5.5953
    -4.6823  -4.6648  -4.2817  -2.8109   1.3849   2.8027   2.9890   3.3831

          k = 0.3333 0.5774 0.0000 ( 15003 PWs)   bands (ev):

   -14.9767 -14.9767 -12.9344  -9.4300  -9.4300  -8.0069  -7.8812  -5.1145
    -5.1145  -4.4290  -4.4289  -3.0854   2.4873   2.4873   2.9631   2.9632

     the Fermi energy is    -0.5863 ev

!    total energy              =     -49.98790497 Ry
     estimated scf accuracy    <       0.00000091 Ry
     smearing contrib. (-TS)   =       0.00018292 Ry
     internal energy E=F+TS    =     -49.98808788 Ry

     The total energy is F=E-TS. E is the sum of the following terms:
     one-electron contribution =    -179.57042781 Ry
     hartree contribution      =      94.37921125 Ry
     xc contribution           =     -23.24248159 Ry
     ewald contribution        =      58.44561026 Ry

     convergence has been achieved in   6 iterations

     Writing all to output data dir ../../outdir/borophene.save/

     init_run     :     13.27s CPU      8.26s WALL (       1 calls)
     electrons    :    148.24s CPU    134.09s WALL (       1 calls)

     Called by init_run:
     wfcinit      :     11.85s CPU      7.03s WALL (       1 calls)
     potinit      :      0.28s CPU      0.18s WALL (       1 calls)
     hinit0       :      0.92s CPU      0.81s WALL (       1 calls)

     Called by electrons:
     c_bands      :    122.53s CPU    130.19s WALL (       6 calls)
     sum_band     :     23.47s CPU      2.27s WALL (       6 calls)
     v_of_rho     :      1.73s CPU      0.97s WALL (       7 calls)
     newd         :      0.65s CPU      0.73s WALL (       7 calls)
     mix_rho      :      0.17s CPU      0.16s WALL (       6 calls)

     Called by c_bands:
     init_us_2    :      1.24s CPU      0.99s WALL (     156 calls)
     init_us_2:cp :      1.23s CPU      0.99s WALL (     156 calls)
     cegterg      :    119.94s CPU    128.24s WALL (      72 calls)

     Called by *egterg:
     cdiaghg      :      0.20s CPU      0.13s WALL (     321 calls)
     h_psi        :    117.26s CPU    125.70s WALL (     333 calls)
     s_psi        :      3.45s CPU      2.10s WALL (     333 calls)
     g_psi        :      0.48s CPU      0.44s WALL (     249 calls)

     Called by h_psi:
     h_psi:calbec :      4.85s CPU      3.13s WALL (     333 calls)
     vloc_psi     :    108.44s CPU    120.19s WALL (     333 calls)
     add_vuspsi   :      3.33s CPU      1.81s WALL (     333 calls)

     General routines
     calbec       :      6.40s CPU      4.13s WALL (     405 calls)
     fft          :      1.22s CPU      0.90s WALL (      77 calls)
     ffts         :      0.05s CPU      0.03s WALL (       6 calls)
     fftw         :    103.98s CPU    106.54s WALL (    8374 calls)

     Parallel routines

     PWSCF        :   2m41.70s CPU   2m22.66s WALL


   This run was terminated on:  11:14:12   3Jul2025            

=------------------------------------------------------------------------------=
   JOB DONE.
=------------------------------------------------------------------------------=
