
     Program PWSCF v.7.2 starts on  3Jul2025 at 10:54: 7 

     This program is part of the open-source Quantum ESPRESSO suite
     for quantum simulation of materials; please cite
         "P. Giannozzi et al., J. Phys.:Condens. Matter 21 395502 (2009);
         "P. Giannozzi et al., J. Phys.:Condens. Matter 29 465901 (2017);
         "P. Giannozzi et al., J. Chem. Phys. 152 154105 (2020);
          URL http://www.quantum-espresso.org", 
     in publications or presentations arising from this work. More details at
     http://www.quantum-espresso.org/quote

     Parallel version (MPI & OpenMP), running on       2 processor cores
     Number of MPI processes:                 1
     Threads/MPI process:                     2

     MPI processes distributed on     1 nodes
     308 MiB available memory on the printing compute node when the environment starts

     Reading input from ../latticeparam/alpha_50_9.58.in

     Current dimensions of program PWSCF are:
     Max number of different atomic species (ntypx) = 10
     Max number of k-points (npk) =  40000
     Max angular momentum in pseudopotentials (lmaxx) =  4
     file B.pbesol-n-rrkjus_psl.1.0.0.UPF: wavefunction(s)  2S renormalized

     IMPORTANT: XC functional enforced from input :
     Exchange-correlation= PBESOL
                           (   1   4  10   8   0   0   0)
     Any further DFT definition will be discarded
     Please, verify this is what you really want


     Subspace diagonalization in iterative solution of the eigenvalue problem:
     a serial algorithm will be used


     G-vector sticks info
     --------------------
     sticks:   dense  smooth     PW     G-vecs:    dense   smooth      PW
     Sum        1261    1261    361                72663    72663   10929

     Using Slab Decomposition



     bravais-lattice index     =            4
     lattice parameter (alat)  =       9.5800  a.u.
     unit-cell volume          =    1522.8501 (a.u.)^3
     number of atoms/cell      =            8
     number of atomic types    =            1
     number of electrons       =        24.00
     number of Kohn-Sham states=           16
     kinetic-energy cutoff     =      50.0000  Ry
     charge density cutoff     =     200.0000  Ry
     scf convergence threshold =      1.0E-06
     mixing beta               =       0.7000
     number of iterations used =            8  plain     mixing
     Exchange-correlation= PBESOL
                           (   1   4  10   8   0   0   0)

     celldm(1)=   9.580000  celldm(2)=   0.000000  celldm(3)=   2.000000
     celldm(4)=   0.000000  celldm(5)=   0.000000  celldm(6)=   0.000000

     crystal axes: (cart. coord. in units of alat)
               a(1) = (   1.000000   0.000000   0.000000 )  
               a(2) = (  -0.500000   0.866025   0.000000 )  
               a(3) = (   0.000000   0.000000   2.000000 )  

     reciprocal axes: (cart. coord. in units 2 pi/alat)
               b(1) = (  1.000000  0.577350 -0.000000 )  
               b(2) = (  0.000000  1.154701  0.000000 )  
               b(3) = (  0.000000 -0.000000  0.500000 )  


     PseudoPot. # 1 for B  read from file:
     ../../pseudo/B.pbesol-n-rrkjus_psl.1.0.0.UPF
     MD5 check sum: a3839a09b1a4e02f2a06a66adc9253fc
     Pseudo is Ultrasoft + core correction, Zval =  3.0
     Generated using &quot;atomic&quot; code by A. Dal Corso  v.6.3MaX
     Using radial grid of 1059 points,  4 beta functions with: 
                l(1) =   0
                l(2) =   0
                l(3) =   1
                l(4) =   1
     Q(r) pseudized with 0 coefficients 


     atomic species   valence    mass     pseudopotential
        B              3.00    10.81100     B ( 1.00)

     24 Sym. Ops., with inversion, found



   Cartesian axes

     site n.     atom                  positions (alat units)
         1           B   tau(   1) = (   0.3333330   0.0000000   0.0000000  )
         2           B   tau(   2) = (   0.6666670   0.0000000   0.0000000  )
         3           B   tau(   3) = (  -0.1666665   0.2886748   0.0000000  )
         4           B   tau(   4) = (   0.1666665   0.2886748   0.0000000  )
         5           B   tau(   5) = (   0.5000005   0.2886748   0.0000000  )
         6           B   tau(   6) = (  -0.3333335   0.5773506   0.0000000  )
         7           B   tau(   7) = (  -0.0000005   0.5773506   0.0000000  )
         8           B   tau(   8) = (   0.3333335   0.5773506   0.0000000  )

     number of k points=    12  Marzari-Vanderbilt smearing, width (Ry)=  0.0350
                       cart. coord. in units 2pi/alat
        k(    1) = (   0.0000000   0.0000000   0.0000000), wk =   0.0246914
        k(    2) = (   0.0000000   0.1283001   0.0000000), wk =   0.1481481
        k(    3) = (   0.0000000   0.2566001   0.0000000), wk =   0.1481481
        k(    4) = (   0.0000000   0.3849002   0.0000000), wk =   0.1481481
        k(    5) = (   0.0000000   0.5132002   0.0000000), wk =   0.1481481
        k(    6) = (   0.1111111   0.1924501   0.0000000), wk =   0.1481481
        k(    7) = (   0.1111111   0.3207501   0.0000000), wk =   0.2962963
        k(    8) = (   0.1111111   0.4490502   0.0000000), wk =   0.2962963
        k(    9) = (   0.1111111   0.5773503   0.0000000), wk =   0.1481481
        k(   10) = (   0.2222222   0.3849002   0.0000000), wk =   0.1481481
        k(   11) = (   0.2222222   0.5132002   0.0000000), wk =   0.2962963
        k(   12) = (   0.3333333   0.5773503   0.0000000), wk =   0.0493827

     Dense  grid:    72663 G-vectors     FFT dimensions: (  45,  45,  90)

     Estimated max dynamical RAM per process >     137.33 MB

     Check: negative core charge=   -0.000004

     Initial potential from superposition of free atoms

     starting charge      23.9977, renormalised to      24.0000

     negative rho (up, down):  3.126E-04 0.000E+00
     Starting wfcs are   32 randomized atomic wfcs

     total cpu time spent up to now is        4.5 secs

     per-process dynamical memory:    82.3 Mb

     Self-consistent Calculation

     iteration #  1     ecut=    50.00 Ry     beta= 0.70
     Davidson diagonalization with overlap
     ethr =  1.00E-02,  avg # of iterations =  2.0

     negative rho (up, down):  2.308E-03 0.000E+00

     total cpu time spent up to now is        2.0 secs

     total energy              =     -49.86862497 Ry
     estimated scf accuracy    <       0.68929845 Ry

     iteration #  2     ecut=    50.00 Ry     beta= 0.70
     Davidson diagonalization with overlap
     ethr =  2.87E-03,  avg # of iterations =  2.0

     negative rho (up, down):  3.535E-03 0.000E+00

     total cpu time spent up to now is       10.8 secs

     total energy              =     -49.98127879 Ry
     estimated scf accuracy    <       0.01812525 Ry

     iteration #  3     ecut=    50.00 Ry     beta= 0.70
     Davidson diagonalization with overlap
     ethr =  7.55E-05,  avg # of iterations =  5.2

     negative rho (up, down):  3.921E-03 0.000E+00

     total cpu time spent up to now is       22.2 secs

     total energy              =     -49.98590198 Ry
     estimated scf accuracy    <       0.00476012 Ry

     iteration #  4     ecut=    50.00 Ry     beta= 0.70
     Davidson diagonalization with overlap
     ethr =  1.98E-05,  avg # of iterations =  3.2

     negative rho (up, down):  4.297E-03 0.000E+00

     total cpu time spent up to now is       20.5 secs

     total energy              =     -49.98694285 Ry
     estimated scf accuracy    <       0.00017016 Ry

     iteration #  5     ecut=    50.00 Ry     beta= 0.70
     Davidson diagonalization with overlap
     ethr =  7.09E-07,  avg # of iterations =  6.4

     negative rho (up, down):  4.332E-03 0.000E+00

     total cpu time spent up to now is       33.4 secs

     total energy              =     -49.98696191 Ry
     estimated scf accuracy    <       0.00001508 Ry

     iteration #  6     ecut=    50.00 Ry     beta= 0.70
     Davidson diagonalization with overlap
     ethr =  6.28E-08,  avg # of iterations =  2.6

     negative rho (up, down):  4.333E-03 0.000E+00

     total cpu time spent up to now is       42.6 secs

     End of self-consistent calculation

          k = 0.0000 0.0000 0.0000 (  9127 PWs)   bands (ev):

   -16.1988 -12.0887 -12.0078 -12.0077  -9.7625  -9.7625  -7.6351  -7.0622
    -2.1446  -2.1446  -0.6674  -0.1548  -0.1547   0.1194   0.1194   0.4893

          k = 0.0000 0.1283 0.0000 (  9103 PWs)   bands (ev):

   -16.1436 -12.7567 -12.0589 -11.3834  -9.8308  -9.6214  -7.3975  -6.9774
    -2.7508  -2.6596  -1.6175  -0.5991   0.0023   0.6887   0.7761   1.0998

          k = 0.0000 0.2566 0.0000 (  9071 PWs)   bands (ev):

   -15.9811 -13.4395 -12.1723 -10.9720  -9.7392  -9.2502  -6.9247  -6.7259
    -3.7897  -3.4999  -2.7696  -1.1001  -0.2141   1.7331   1.9573   2.0952

          k = 0.0000 0.3849 0.0000 (  9093 PWs)   bands (ev):

   -15.7257 -14.0565 -12.2812 -10.9482  -9.2217  -8.7659  -6.6851  -6.3224
    -4.7543  -4.0317  -3.8009  -1.4462  -0.4358   2.7601   3.0382   3.1354

          k = 0.0000 0.5132 0.0000 (  9102 PWs)   bands (ev):

   -15.4449 -14.5227 -12.3441 -11.0107  -8.6627  -8.3654  -6.8882  -5.8497
    -5.3984  -4.5934  -4.0915  -1.6211  -0.5622   3.3253   3.6398   3.7464

          k = 0.1111 0.1925 0.0000 (  9069 PWs)   bands (ev):

   -16.0345 -13.2513 -12.1853 -10.9569  -9.8958  -9.3264  -7.0509  -6.8090
    -3.5332  -3.2492  -2.4168  -1.2549   0.3579   1.2334   1.2955   1.7718

          k = 0.1111 0.3208 0.0000 (  9078 PWs)   bands (ev):

   -15.8235 -13.8281 -12.3704 -10.6613  -9.7012  -8.8451  -6.7457  -6.4793
    -4.3637  -3.9149  -3.3688  -1.8084   0.3603   2.0332   2.0625   2.8464

          k = 0.1111 0.4491 0.0000 (  9110 PWs)   bands (ev):

   -15.5379 -14.3546 -12.5074 -10.6616  -9.1330  -8.3694  -6.9389  -6.0186
    -4.9536  -4.2527  -4.1693  -2.1196   0.2237   2.7706   3.1765   3.3980

          k = 0.1111 0.5774 0.0000 (  9100 PWs)   bands (ev):

   -15.3382 -14.6376 -12.5563 -10.6862  -8.7583  -8.1487  -7.2427  -5.6666
    -5.2151  -4.7519  -4.1278  -2.2203   0.1678   3.1936   3.2581   4.0489

          k = 0.2222 0.3849 0.0000 (  9097 PWs)   bands (ev):

   -15.5732 -14.2646 -12.6489 -10.1720  -9.6462  -8.3503  -7.0055  -6.0821
    -4.5471  -4.3411  -4.0256  -2.4906   1.1578   2.1027   2.3892   3.3063

          k = 0.2222 0.5132 0.0000 (  9097 PWs)   bands (ev):

   -15.2777 -14.6622 -12.8133 -10.0289  -9.2049  -8.0184  -7.6015  -5.5958
    -4.7092  -4.6695  -4.3089  -2.8233   1.3511   2.7250   2.9468   3.3008

          k = 0.3333 0.5774 0.0000 (  9135 PWs)   bands (ev):

   -14.9748 -14.9748 -12.9371  -9.4414  -9.4413  -8.0183  -7.8912  -5.1172
    -5.1172  -4.4558  -4.4558  -3.0963   2.4474   2.4475   2.8822   2.8823

     the Fermi energy is    -0.6109 ev

!    total energy              =     -49.98696615 Ry
     estimated scf accuracy    <       0.00000078 Ry
     smearing contrib. (-TS)   =       0.00020740 Ry
     internal energy E=F+TS    =     -49.98717356 Ry

     The total energy is F=E-TS. E is the sum of the following terms:
     one-electron contribution =    -179.32541317 Ry
     hartree contribution      =      94.23039886 Ry
     xc contribution           =     -23.21575362 Ry
     ewald contribution        =      58.32359437 Ry

     convergence has been achieved in   6 iterations

     Writing all to output data dir ../../outdir/borophene.save/

     init_run     :      6.17s CPU      4.38s WALL (       1 calls)
     electrons    :     79.17s CPU     38.17s WALL (       1 calls)

     Called by init_run:
     wfcinit      :      5.38s CPU      3.65s WALL (       1 calls)
     potinit      :      0.13s CPU      0.09s WALL (       1 calls)
     hinit0       :      0.58s CPU      0.54s WALL (       1 calls)

     Called by electrons:
     c_bands      :     63.22s CPU     25.13s WALL (       6 calls)
     sum_band     :     14.88s CPU     12.02s WALL (       6 calls)
     v_of_rho     :      0.76s CPU      0.61s WALL (       7 calls)
     newd         :      0.26s CPU      0.37s WALL (       7 calls)
     mix_rho      :      0.16s CPU      0.14s WALL (       6 calls)

     Called by c_bands:
     init_us_2    :      0.60s CPU      0.50s WALL (     156 calls)
     init_us_2:cp :      0.59s CPU      0.50s WALL (     156 calls)
     cegterg      :     62.30s CPU     24.31s WALL (      72 calls)

     Called by *egterg:
     cdiaghg      :      0.18s CPU      0.12s WALL (     328 calls)
     h_psi        :     62.56s CPU     24.38s WALL (     340 calls)
     s_psi        :      1.21s CPU      0.74s WALL (     340 calls)
     g_psi        :      0.17s CPU      0.17s WALL (     256 calls)

     Called by h_psi:
     h_psi:calbec :      1.81s CPU      1.34s WALL (     340 calls)
     vloc_psi     :     59.49s CPU     22.13s WALL (     340 calls)
     add_vuspsi   :      1.04s CPU      0.69s WALL (     340 calls)

     General routines
     calbec       :      2.29s CPU      1.75s WALL (     412 calls)
     fft          :      0.87s CPU      0.82s WALL (      77 calls)
     ffts         :      0.09s CPU      0.08s WALL (       6 calls)
     fftw         :     64.90s CPU     28.49s WALL (    8400 calls)

     Parallel routines

     PWSCF        :   1m25.44s CPU     42.76s WALL


   This run was terminated on:  10:54:50   3Jul2025            

=------------------------------------------------------------------------------=
   JOB DONE.
=------------------------------------------------------------------------------=
