
     Program PWSCF v.7.2 starts on  3Jul2025 at 12:12:47 

     This program is part of the open-source Quantum ESPRESSO suite
     for quantum simulation of materials; please cite
         "P. Giannozzi et al., J. Phys.:Condens. Matter 21 395502 (2009);
         "P. Giannozzi et al., J. Phys.:Condens. Matter 29 465901 (2017);
         "P. Giannozzi et al., J. Chem. Phys. 152 154105 (2020);
          URL http://www.quantum-espresso.org", 
     in publications or presentations arising from this work. More details at
     http://www.quantum-espresso.org/quote

     Parallel version (MPI & OpenMP), running on       2 processor cores
     Number of MPI processes:                 1
     Threads/MPI process:                     2

     MPI processes distributed on     1 nodes
     380 MiB available memory on the printing compute node when the environment starts

     Reading input from ../latticeparam/alpha_9_9.64.in

     Current dimensions of program PWSCF are:
     Max number of different atomic species (ntypx) = 10
     Max number of k-points (npk) =  40000
     Max angular momentum in pseudopotentials (lmaxx) =  4
     file B.pbesol-n-rrkjus_psl.1.0.0.UPF: wavefunction(s)  2S renormalized

     IMPORTANT: XC functional enforced from input :
     Exchange-correlation= PBESOL
                           (   1   4  10   8   0   0   0)
     Any further DFT definition will be discarded
     Please, verify this is what you really want


     Subspace diagonalization in iterative solution of the eigenvalue problem:
     a serial algorithm will be used


     G-vector sticks info
     --------------------
     sticks:   dense  smooth     PW     G-vecs:    dense   smooth      PW
     Sum        1789    1789    499               122815   122815   17977

     Using Slab Decomposition



     bravais-lattice index     =            4
     lattice parameter (alat)  =       9.6400  a.u.
     unit-cell volume          =    1551.6427 (a.u.)^3
     number of atoms/cell      =            8
     number of atomic types    =            1
     number of electrons       =        24.00
     number of Kohn-Sham states=           16
     kinetic-energy cutoff     =      70.0000  Ry
     charge density cutoff     =     280.0000  Ry
     scf convergence threshold =      1.0E-06
     mixing beta               =       0.7000
     number of iterations used =            8  plain     mixing
     Exchange-correlation= PBESOL
                           (   1   4  10   8   0   0   0)

     celldm(1)=   9.640000  celldm(2)=   0.000000  celldm(3)=   2.000000
     celldm(4)=   0.000000  celldm(5)=   0.000000  celldm(6)=   0.000000

     crystal axes: (cart. coord. in units of alat)
               a(1) = (   1.000000   0.000000   0.000000 )  
               a(2) = (  -0.500000   0.866025   0.000000 )  
               a(3) = (   0.000000   0.000000   2.000000 )  

     reciprocal axes: (cart. coord. in units 2 pi/alat)
               b(1) = (  1.000000  0.577350 -0.000000 )  
               b(2) = (  0.000000  1.154701  0.000000 )  
               b(3) = (  0.000000 -0.000000  0.500000 )  


     PseudoPot. # 1 for B  read from file:
     ../../pseudo/B.pbesol-n-rrkjus_psl.1.0.0.UPF
     MD5 check sum: a3839a09b1a4e02f2a06a66adc9253fc
     Pseudo is Ultrasoft + core correction, Zval =  3.0
     Generated using &quot;atomic&quot; code by A. Dal Corso  v.6.3MaX
     Using radial grid of 1059 points,  4 beta functions with: 
                l(1) =   0
                l(2) =   0
                l(3) =   1
                l(4) =   1
     Q(r) pseudized with 0 coefficients 


     atomic species   valence    mass     pseudopotential
        B              3.00    10.81100     B ( 1.00)

     24 Sym. Ops., with inversion, found



   Cartesian axes

     site n.     atom                  positions (alat units)
         1           B   tau(   1) = (   0.3333330   0.0000000   0.0000000  )
         2           B   tau(   2) = (   0.6666670   0.0000000   0.0000000  )
         3           B   tau(   3) = (  -0.1666665   0.2886748   0.0000000  )
         4           B   tau(   4) = (   0.1666665   0.2886748   0.0000000  )
         5           B   tau(   5) = (   0.5000005   0.2886748   0.0000000  )
         6           B   tau(   6) = (  -0.3333335   0.5773506   0.0000000  )
         7           B   tau(   7) = (  -0.0000005   0.5773506   0.0000000  )
         8           B   tau(   8) = (   0.3333335   0.5773506   0.0000000  )

     number of k points=    12  Marzari-Vanderbilt smearing, width (Ry)=  0.0350
                       cart. coord. in units 2pi/alat
        k(    1) = (   0.0000000   0.0000000   0.0000000), wk =   0.0246914
        k(    2) = (   0.0000000   0.1283001   0.0000000), wk =   0.1481481
        k(    3) = (   0.0000000   0.2566001   0.0000000), wk =   0.1481481
        k(    4) = (   0.0000000   0.3849002   0.0000000), wk =   0.1481481
        k(    5) = (   0.0000000   0.5132002   0.0000000), wk =   0.1481481
        k(    6) = (   0.1111111   0.1924501   0.0000000), wk =   0.1481481
        k(    7) = (   0.1111111   0.3207501   0.0000000), wk =   0.2962963
        k(    8) = (   0.1111111   0.4490502   0.0000000), wk =   0.2962963
        k(    9) = (   0.1111111   0.5773503   0.0000000), wk =   0.1481481
        k(   10) = (   0.2222222   0.3849002   0.0000000), wk =   0.1481481
        k(   11) = (   0.2222222   0.5132002   0.0000000), wk =   0.2962963
        k(   12) = (   0.3333333   0.5773503   0.0000000), wk =   0.0493827

     Dense  grid:   122815 G-vectors     FFT dimensions: (  54,  54, 108)

     Estimated max dynamical RAM per process >     232.34 MB

     Initial potential from superposition of free atoms

     starting charge      23.9977, renormalised to      24.0000

     negative rho (up, down):  4.948E-05 0.000E+00
     Starting wfcs are   32 randomized atomic wfcs

     total cpu time spent up to now is       63.0 secs

     per-process dynamical memory:   134.3 Mb

     Self-consistent Calculation

     iteration #  1     ecut=    70.00 Ry     beta= 0.70
     Davidson diagonalization with overlap
     ethr =  1.00E-02,  avg # of iterations =  2.0

     negative rho (up, down):  3.641E-04 0.000E+00

     total cpu time spent up to now is       83.7 secs

     total energy              =     -49.87595723 Ry
     estimated scf accuracy    <       0.65205473 Ry

     iteration #  2     ecut=    70.00 Ry     beta= 0.70
     Davidson diagonalization with overlap
     ethr =  2.72E-03,  avg # of iterations =  2.0

     negative rho (up, down):  6.461E-04 0.000E+00

     total cpu time spent up to now is       91.1 secs

     total energy              =     -49.98189845 Ry
     estimated scf accuracy    <       0.01647633 Ry

     iteration #  3     ecut=    70.00 Ry     beta= 0.70
     Davidson diagonalization with overlap
     ethr =  6.87E-05,  avg # of iterations =  3.2

     negative rho (up, down):  7.436E-04 0.000E+00

     total cpu time spent up to now is      102.1 secs

     total energy              =     -49.98607208 Ry
     estimated scf accuracy    <       0.00442381 Ry

     iteration #  4     ecut=    70.00 Ry     beta= 0.70
     Davidson diagonalization with overlap
     ethr =  1.84E-05,  avg # of iterations =  2.8

     negative rho (up, down):  8.436E-04 0.000E+00

     total cpu time spent up to now is      120.9 secs

     total energy              =     -49.98703340 Ry
     estimated scf accuracy    <       0.00016106 Ry

     iteration #  5     ecut=    70.00 Ry     beta= 0.70
     Davidson diagonalization with overlap
     ethr =  6.71E-07,  avg # of iterations =  6.4

     negative rho (up, down):  8.523E-04 0.000E+00

     total cpu time spent up to now is      133.3 secs

     total energy              =     -49.98705268 Ry
     estimated scf accuracy    <       0.00001643 Ry

     iteration #  6     ecut=    70.00 Ry     beta= 0.70
     Davidson diagonalization with overlap
     ethr =  6.85E-08,  avg # of iterations =  2.8

     negative rho (up, down):  8.526E-04 0.000E+00

     total cpu time spent up to now is      153.2 secs

     End of self-consistent calculation

          k = 0.0000 0.0000 0.0000 ( 15261 PWs)   bands (ev):

   -16.1685 -12.0834 -11.9995 -11.9994  -9.7870  -9.7870  -7.6420  -7.0422
    -2.2301  -2.2301  -0.7379  -0.2291  -0.2291  -0.0041  -0.0041   0.4033

          k = 0.0000 0.1283 0.0000 ( 15329 PWs)   bands (ev):

   -16.1137 -12.7468 -12.0515 -11.3806  -9.8502  -9.6451  -7.4080  -6.9585
    -2.8321  -2.7409  -1.6728  -0.6678  -0.0759   0.5561   0.6445   1.0053

          k = 0.0000 0.2566 0.0000 ( 15352 PWs)   bands (ev):

   -15.9524 -13.4263 -12.1665 -10.9755  -9.7489  -9.2724  -6.9393  -6.7105
    -3.8637  -3.5753  -2.8083  -1.1618  -0.2866   1.5795   1.8062   1.9860

          k = 0.0000 0.3849 0.0000 ( 15368 PWs)   bands (ev):

   -15.6989 -14.0399 -12.2766 -10.9537  -9.2274  -8.7861  -6.7000  -6.3126
    -4.8232  -4.1038  -3.8250  -1.5030  -0.5033   2.5827   2.9589   3.1261

          k = 0.0000 0.5132 0.0000 ( 15382 PWs)   bands (ev):

   -15.4201 -14.5032 -12.3401 -11.0156  -8.6683  -8.3829  -6.9046  -5.8468
    -5.4663  -4.6061  -4.1595  -1.6755  -0.6270   3.1031   3.4944   3.8258

          k = 0.1111 0.1925 0.0000 ( 15345 PWs)   bands (ev):

   -16.0055 -13.2390 -12.1791 -10.9580  -9.9100  -9.3475  -7.0648  -6.7925
    -3.6108  -3.3239  -2.4608  -1.3131   0.2736   1.1414   1.1464   1.6282

          k = 0.1111 0.3208 0.0000 ( 15348 PWs)   bands (ev):

   -15.7959 -13.8129 -12.3649 -10.6675  -9.7106  -8.8625  -6.7607  -6.4673
    -4.4364  -3.9848  -3.3994  -1.8583   0.2781   1.8890   1.9289   2.9278

          k = 0.1111 0.4491 0.0000 ( 15347 PWs)   bands (ev):

   -15.5124 -14.3363 -12.5020 -10.6687  -9.1429  -8.3832  -6.9564  -6.0131
    -5.0195  -4.2707  -4.2374  -2.1649   0.1451   2.5705   3.0532   3.4687

          k = 0.1111 0.5774 0.0000 ( 15340 PWs)   bands (ev):

   -15.3142 -14.6175 -12.5508 -10.6931  -8.7691  -8.1601  -7.2621  -5.6664
    -5.2797  -4.7625  -4.1936  -2.2642   0.0904   2.9819   3.0277   4.0114

          k = 0.2222 0.3849 0.0000 ( 15367 PWs)   bands (ev):

   -15.5475 -14.2470 -12.6423 -10.1822  -9.6558  -8.3628  -7.0232  -6.0756
    -4.6154  -4.4057  -4.0475  -2.5296   1.0617   1.9997   2.1908   3.3947

          k = 0.2222 0.5132 0.0000 ( 15354 PWs)   bands (ev):

   -15.2541 -14.6422 -12.8059 -10.0399  -9.2174  -8.0275  -7.6205  -5.5962
    -4.7722  -4.6824  -4.3725  -2.8572   1.2541   2.5067   2.8266   3.0684

          k = 0.3333 0.5774 0.0000 ( 15381 PWs)   bands (ev):

   -14.9531 -14.9531 -12.9287  -9.4552  -9.4551  -8.0353  -7.8986  -5.1244
    -5.1243  -4.5179  -4.5179  -3.1258   2.3320   2.3321   2.6540   2.6540

     the Fermi energy is    -0.6803 ev

!    total energy              =     -49.98705717 Ry
     estimated scf accuracy    <       0.00000092 Ry
     smearing contrib. (-TS)   =       0.00027888 Ry
     internal energy E=F+TS    =     -49.98733606 Ry

     The total energy is F=E-TS. E is the sum of the following terms:
     one-electron contribution =    -178.64442590 Ry
     hartree contribution      =      93.81384382 Ry
     xc contribution           =     -23.11733843 Ry
     ewald contribution        =      57.96058445 Ry

     convergence has been achieved in   6 iterations

     Writing all to output data dir ../../outdir/borophene.save/

     init_run     :     18.26s CPU     62.87s WALL (       1 calls)
     electrons    :    195.72s CPU     90.20s WALL (       1 calls)

     Called by init_run:
     wfcinit      :     16.43s CPU     61.32s WALL (       1 calls)
     potinit      :      0.42s CPU      0.27s WALL (       1 calls)
     hinit0       :      1.12s CPU      0.94s WALL (       1 calls)

     Called by electrons:
     c_bands      :    160.71s CPU     66.81s WALL (       6 calls)
     sum_band     :     31.59s CPU     20.71s WALL (       6 calls)
     v_of_rho     :      2.49s CPU      1.51s WALL (       7 calls)
     newd         :      1.06s CPU      1.27s WALL (       7 calls)
     mix_rho      :      0.30s CPU      0.23s WALL (       6 calls)

     Called by c_bands:
     init_us_2    :      1.91s CPU      1.53s WALL (     156 calls)
     init_us_2:cp :      1.91s CPU      1.53s WALL (     156 calls)
     cegterg      :    156.99s CPU     64.03s WALL (      72 calls)

     Called by *egterg:
     cdiaghg      :      0.28s CPU      0.19s WALL (     302 calls)
     h_psi        :    152.92s CPU    111.82s WALL (     314 calls)
     s_psi        :      5.24s CPU      3.19s WALL (     314 calls)
     g_psi        :      0.62s CPU      0.53s WALL (     230 calls)

     Called by h_psi:
     h_psi:calbec :      7.16s CPU     -8.59s WALL (     314 calls)
     vloc_psi     :    139.93s CPU    116.90s WALL (     314 calls)
     add_vuspsi   :      4.96s CPU      2.71s WALL (     314 calls)

     General routines
     calbec       :      9.38s CPU     -7.10s WALL (     386 calls)
     fft          :      1.71s CPU      1.20s WALL (      77 calls)
     ffts         :      0.08s CPU      0.06s WALL (       6 calls)
     fftw         :    128.91s CPU     61.44s WALL (    8314 calls)

     Parallel routines

     PWSCF        :   3m34.20s CPU   2m33.54s WALL


   This run was terminated on:  12:15:21   3Jul2025            

=------------------------------------------------------------------------------=
   JOB DONE.
=------------------------------------------------------------------------------=
