
     Program PWSCF v.7.2 starts on  3Jul2025 at 11:47:33 

     This program is part of the open-source Quantum ESPRESSO suite
     for quantum simulation of materials; please cite
         "P. Giannozzi et al., J. Phys.:Condens. Matter 21 395502 (2009);
         "P. Giannozzi et al., J. Phys.:Condens. Matter 29 465901 (2017);
         "P. Giannozzi et al., J. Chem. Phys. 152 154105 (2020);
          URL http://www.quantum-espresso.org", 
     in publications or presentations arising from this work. More details at
     http://www.quantum-espresso.org/quote

     Parallel version (MPI & OpenMP), running on       2 processor cores
     Number of MPI processes:                 1
     Threads/MPI process:                     2

     MPI processes distributed on     1 nodes
     392 MiB available memory on the printing compute node when the environment starts

     Reading input from ../latticeparam/alpha_7_9.56.in

     Current dimensions of program PWSCF are:
     Max number of different atomic species (ntypx) = 10
     Max number of k-points (npk) =  40000
     Max angular momentum in pseudopotentials (lmaxx) =  4
     file B.pbesol-n-rrkjus_psl.1.0.0.UPF: wavefunction(s)  2S renormalized

     IMPORTANT: XC functional enforced from input :
     Exchange-correlation= PBESOL
                           (   1   4  10   8   0   0   0)
     Any further DFT definition will be discarded
     Please, verify this is what you really want


     Subspace diagonalization in iterative solution of the eigenvalue problem:
     a serial algorithm will be used


     G-vector sticks info
     --------------------
     sticks:   dense  smooth     PW     G-vecs:    dense   smooth      PW
     Sum        1765    1765    499               119609   119609   17051

     Using Slab Decomposition



     bravais-lattice index     =            4
     lattice parameter (alat)  =       9.5600  a.u.
     unit-cell volume          =    1513.3323 (a.u.)^3
     number of atoms/cell      =            8
     number of atomic types    =            1
     number of electrons       =        24.00
     number of Kohn-Sham states=           16
     kinetic-energy cutoff     =      70.0000  Ry
     charge density cutoff     =     280.0000  Ry
     scf convergence threshold =      1.0E-06
     mixing beta               =       0.7000
     number of iterations used =            8  plain     mixing
     Exchange-correlation= PBESOL
                           (   1   4  10   8   0   0   0)

     celldm(1)=   9.560000  celldm(2)=   0.000000  celldm(3)=   2.000000
     celldm(4)=   0.000000  celldm(5)=   0.000000  celldm(6)=   0.000000

     crystal axes: (cart. coord. in units of alat)
               a(1) = (   1.000000   0.000000   0.000000 )  
               a(2) = (  -0.500000   0.866025   0.000000 )  
               a(3) = (   0.000000   0.000000   2.000000 )  

     reciprocal axes: (cart. coord. in units 2 pi/alat)
               b(1) = (  1.000000  0.577350 -0.000000 )  
               b(2) = (  0.000000  1.154701  0.000000 )  
               b(3) = (  0.000000 -0.000000  0.500000 )  


     PseudoPot. # 1 for B  read from file:
     ../../pseudo/B.pbesol-n-rrkjus_psl.1.0.0.UPF
     MD5 check sum: a3839a09b1a4e02f2a06a66adc9253fc
     Pseudo is Ultrasoft + core correction, Zval =  3.0
     Generated using &quot;atomic&quot; code by A. Dal Corso  v.6.3MaX
     Using radial grid of 1059 points,  4 beta functions with: 
                l(1) =   0
                l(2) =   0
                l(3) =   1
                l(4) =   1
     Q(r) pseudized with 0 coefficients 


     atomic species   valence    mass     pseudopotential
        B              3.00    10.81100     B ( 1.00)

     24 Sym. Ops., with inversion, found



   Cartesian axes

     site n.     atom                  positions (alat units)
         1           B   tau(   1) = (   0.3333330   0.0000000   0.0000000  )
         2           B   tau(   2) = (   0.6666670   0.0000000   0.0000000  )
         3           B   tau(   3) = (  -0.1666665   0.2886748   0.0000000  )
         4           B   tau(   4) = (   0.1666665   0.2886748   0.0000000  )
         5           B   tau(   5) = (   0.5000005   0.2886748   0.0000000  )
         6           B   tau(   6) = (  -0.3333335   0.5773506   0.0000000  )
         7           B   tau(   7) = (  -0.0000005   0.5773506   0.0000000  )
         8           B   tau(   8) = (   0.3333335   0.5773506   0.0000000  )

     number of k points=     8  Marzari-Vanderbilt smearing, width (Ry)=  0.0350
                       cart. coord. in units 2pi/alat
        k(    1) = (   0.0000000   0.0000000   0.0000000), wk =   0.0408163
        k(    2) = (   0.0000000   0.1649572   0.0000000), wk =   0.2448980
        k(    3) = (   0.0000000   0.3299144   0.0000000), wk =   0.2448980
        k(    4) = (   0.0000000   0.4948717   0.0000000), wk =   0.2448980
        k(    5) = (   0.1428571   0.2474358   0.0000000), wk =   0.2448980
        k(    6) = (   0.1428571   0.4123930   0.0000000), wk =   0.4897959
        k(    7) = (   0.1428571   0.5773503   0.0000000), wk =   0.2448980
        k(    8) = (   0.2857143   0.4948717   0.0000000), wk =   0.2448980

     Dense  grid:   119609 G-vectors     FFT dimensions: (  54,  54, 108)

     Estimated max dynamical RAM per process >     212.32 MB

     Initial potential from superposition of free atoms

     starting charge      23.9977, renormalised to      24.0000

     negative rho (up, down):  4.304E-05 0.000E+00
     Starting wfcs are   32 randomized atomic wfcs

     total cpu time spent up to now is        5.2 secs

     per-process dynamical memory:   116.2 Mb

     Self-consistent Calculation

     iteration #  1     ecut=    70.00 Ry     beta= 0.70
     Davidson diagonalization with overlap
     ethr =  1.00E-02,  avg # of iterations =  2.0

     negative rho (up, down):  3.672E-04 0.000E+00

     total cpu time spent up to now is       14.9 secs

     total energy              =     -49.86730199 Ry
     estimated scf accuracy    <       0.70117732 Ry

     iteration #  2     ecut=    70.00 Ry     beta= 0.70
     Davidson diagonalization with overlap
     ethr =  2.92E-03,  avg # of iterations =  2.0

     negative rho (up, down):  6.479E-04 0.000E+00

     total cpu time spent up to now is       24.5 secs

     total energy              =     -49.98127140 Ry
     estimated scf accuracy    <       0.01805214 Ry

     iteration #  3     ecut=    70.00 Ry     beta= 0.70
     Davidson diagonalization with overlap
     ethr =  7.52E-05,  avg # of iterations =  4.9

     negative rho (up, down):  7.476E-04 0.000E+00

     total cpu time spent up to now is       23.4 secs

     total energy              =     -49.98586181 Ry
     estimated scf accuracy    <       0.00492867 Ry

     iteration #  4     ecut=    70.00 Ry     beta= 0.70
     Davidson diagonalization with overlap
     ethr =  2.05E-05,  avg # of iterations =  2.8

     negative rho (up, down):  8.523E-04 0.000E+00

     total cpu time spent up to now is       32.1 secs

     total energy              =     -49.98694115 Ry
     estimated scf accuracy    <       0.00017140 Ry

     iteration #  5     ecut=    70.00 Ry     beta= 0.70
     Davidson diagonalization with overlap
     c_bands:  2 eigenvalues not converged
     ethr =  7.14E-07,  avg # of iterations =  5.6

     negative rho (up, down):  8.628E-04 0.000E+00

     total cpu time spent up to now is       43.7 secs

     total energy              =     -49.98696207 Ry
     estimated scf accuracy    <       0.00001631 Ry

     iteration #  6     ecut=    70.00 Ry     beta= 0.70
     Davidson diagonalization with overlap
     ethr =  6.80E-08,  avg # of iterations =  3.0

     negative rho (up, down):  8.632E-04 0.000E+00

     total cpu time spent up to now is       41.0 secs

     End of self-consistent calculation

          k = 0.0000 0.0000 0.0000 ( 14985 PWs)   bands (ev):

   -16.2041 -12.0839 -12.0041 -12.0041  -9.7481  -9.7481  -7.6270  -7.0687
    -2.1096  -2.1096  -0.6430  -0.1288  -0.1288   0.1657   0.1657   0.5193

          k = 0.0000 0.1650 0.0000 ( 14984 PWs)   bands (ev):

   -16.1128 -12.9534 -12.0842 -11.2193  -9.8325  -9.5204  -7.2576  -6.9281
    -3.0059  -2.8704  -1.9358  -0.7321  -0.0199   1.0222   1.1467   1.3981

          k = 0.0000 0.3299 0.0000 ( 14950 PWs)   bands (ev):

   -15.8488 -13.8026 -12.2340 -10.9215  -9.4692  -8.9640  -6.7174  -6.5158
    -4.3349  -3.8372  -3.3681  -1.2978  -0.3242   2.4012   2.7066   2.7811

          k = 0.0000 0.4949 0.0000 ( 14968 PWs)   bands (ev):

   -15.4820 -14.4743 -12.3341 -10.9966  -8.7146  -8.3924  -6.8394  -5.9115
    -5.3097  -4.5011  -4.0680  -1.5876  -0.5280   3.4031   3.7245   3.7880

          k = 0.1429 0.2474 0.0000 ( 14991 PWs)   bands (ev):

   -15.9343 -13.5659 -12.2977 -10.7034  -9.8739  -9.0498  -6.8326  -6.6507
    -3.9866  -3.6033  -2.9128  -1.6214   0.5660   1.5058   1.7476   2.5732

          k = 0.1429 0.4124 0.0000 ( 14972 PWs)   bands (ev):

   -15.6013 -14.2450 -12.5477 -10.4808  -9.3913  -8.4106  -6.8951  -6.1213
    -4.7097  -4.1781  -4.0319  -2.2302   0.5966   2.5779   2.6530   3.4300

          k = 0.1429 0.5774 0.0000 ( 14968 PWs)   bands (ev):

   -15.3110 -14.6612 -12.6421 -10.5024  -8.8346  -8.0816  -7.3703  -5.6213
    -5.0534  -4.7559  -4.1321  -2.4170   0.5224   3.1247   3.3209   3.9392

          k = 0.2857 0.4949 0.0000 ( 14955 PWs)   bands (ev):

   -15.2291 -14.7124 -12.8705  -9.7445  -9.3632  -7.9616  -7.7247  -5.5187
    -4.7104  -4.5029  -4.3989  -2.9496   1.8739   2.6243   2.7631   3.3236

     the Fermi energy is    -0.5823 ev

!    total energy              =     -49.98696648 Ry
     estimated scf accuracy    <       0.00000042 Ry
     smearing contrib. (-TS)   =      -0.00125635 Ry
     internal energy E=F+TS    =     -49.98571013 Ry

     The total energy is F=E-TS. E is the sum of the following terms:
     one-electron contribution =    -179.56879746 Ry
     hartree contribution      =      94.38013483 Ry
     xc contribution           =     -23.24265776 Ry
     ewald contribution        =      58.44561026 Ry

     convergence has been achieved in   6 iterations

     Writing all to output data dir ../../outdir/borophene.save/

     init_run     :      6.44s CPU      5.13s WALL (       1 calls)
     electrons    :     72.28s CPU     35.78s WALL (       1 calls)

     Called by init_run:
     wfcinit      :      5.37s CPU      4.14s WALL (       1 calls)
     potinit      :      0.19s CPU      0.14s WALL (       1 calls)
     hinit0       :      0.73s CPU      0.67s WALL (       1 calls)

     Called by electrons:
     c_bands      :     58.46s CPU     23.54s WALL (       6 calls)
     sum_band     :     12.25s CPU     10.82s WALL (       6 calls)
     v_of_rho     :      1.09s CPU      0.85s WALL (       7 calls)
     newd         :      0.52s CPU      0.61s WALL (       7 calls)
     mix_rho      :      0.14s CPU      0.14s WALL (       6 calls)

     Called by c_bands:
     init_us_2    :      0.56s CPU      0.62s WALL (     104 calls)
     init_us_2:cp :      0.56s CPU      0.62s WALL (     104 calls)
     cegterg      :     57.44s CPU     22.65s WALL (      48 calls)

     Called by *egterg:
     cdiaghg      :      0.11s CPU      0.09s WALL (     210 calls)
     h_psi        :     57.62s CPU     22.87s WALL (     218 calls)
     s_psi        :      1.25s CPU      0.84s WALL (     218 calls)
     g_psi        :      0.14s CPU      0.15s WALL (     162 calls)

     Called by h_psi:
     h_psi:calbec :      1.43s CPU    -10.76s WALL (     218 calls)
     vloc_psi     :     54.81s CPU     32.69s WALL (     218 calls)
     add_vuspsi   :      1.17s CPU      0.73s WALL (     218 calls)

     General routines
     calbec       :      1.97s CPU    -10.25s WALL (     266 calls)
     fft          :      0.87s CPU      0.75s WALL (      77 calls)
     ffts         :      0.03s CPU      0.03s WALL (       6 calls)
     fftw         :     55.73s CPU     33.78s WALL (    5600 calls)

     Parallel routines

     PWSCF        :   1m18.82s CPU     41.07s WALL


   This run was terminated on:  11:48:14   3Jul2025            

=------------------------------------------------------------------------------=
   JOB DONE.
=------------------------------------------------------------------------------=
