
     Program PWSCF v.7.2 starts on  3Jul2025 at 11:51:23 

     This program is part of the open-source Quantum ESPRESSO suite
     for quantum simulation of materials; please cite
         "P. Giannozzi et al., J. Phys.:Condens. Matter 21 395502 (2009);
         "P. Giannozzi et al., J. Phys.:Condens. Matter 29 465901 (2017);
         "P. Giannozzi et al., J. Chem. Phys. 152 154105 (2020);
          URL http://www.quantum-espresso.org", 
     in publications or presentations arising from this work. More details at
     http://www.quantum-espresso.org/quote

     Parallel version (MPI & OpenMP), running on       2 processor cores
     Number of MPI processes:                 1
     Threads/MPI process:                     2

     MPI processes distributed on     1 nodes
     382 MiB available memory on the printing compute node when the environment starts

     Reading input from ../latticeparam/alpha_7_9.64.in

     Current dimensions of program PWSCF are:
     Max number of different atomic species (ntypx) = 10
     Max number of k-points (npk) =  40000
     Max angular momentum in pseudopotentials (lmaxx) =  4
     file B.pbesol-n-rrkjus_psl.1.0.0.UPF: wavefunction(s)  2S renormalized

     IMPORTANT: XC functional enforced from input :
     Exchange-correlation= PBESOL
                           (   1   4  10   8   0   0   0)
     Any further DFT definition will be discarded
     Please, verify this is what you really want


     Subspace diagonalization in iterative solution of the eigenvalue problem:
     a serial algorithm will be used


     G-vector sticks info
     --------------------
     sticks:   dense  smooth     PW     G-vecs:    dense   smooth      PW
     Sum        1789    1789    499               122815   122815   17639

     Using Slab Decomposition



     bravais-lattice index     =            4
     lattice parameter (alat)  =       9.6400  a.u.
     unit-cell volume          =    1551.6427 (a.u.)^3
     number of atoms/cell      =            8
     number of atomic types    =            1
     number of electrons       =        24.00
     number of Kohn-Sham states=           16
     kinetic-energy cutoff     =      70.0000  Ry
     charge density cutoff     =     280.0000  Ry
     scf convergence threshold =      1.0E-06
     mixing beta               =       0.7000
     number of iterations used =            8  plain     mixing
     Exchange-correlation= PBESOL
                           (   1   4  10   8   0   0   0)

     celldm(1)=   9.640000  celldm(2)=   0.000000  celldm(3)=   2.000000
     celldm(4)=   0.000000  celldm(5)=   0.000000  celldm(6)=   0.000000

     crystal axes: (cart. coord. in units of alat)
               a(1) = (   1.000000   0.000000   0.000000 )  
               a(2) = (  -0.500000   0.866025   0.000000 )  
               a(3) = (   0.000000   0.000000   2.000000 )  

     reciprocal axes: (cart. coord. in units 2 pi/alat)
               b(1) = (  1.000000  0.577350 -0.000000 )  
               b(2) = (  0.000000  1.154701  0.000000 )  
               b(3) = (  0.000000 -0.000000  0.500000 )  


     PseudoPot. # 1 for B  read from file:
     ../../pseudo/B.pbesol-n-rrkjus_psl.1.0.0.UPF
     MD5 check sum: a3839a09b1a4e02f2a06a66adc9253fc
     Pseudo is Ultrasoft + core correction, Zval =  3.0
     Generated using &quot;atomic&quot; code by A. Dal Corso  v.6.3MaX
     Using radial grid of 1059 points,  4 beta functions with: 
                l(1) =   0
                l(2) =   0
                l(3) =   1
                l(4) =   1
     Q(r) pseudized with 0 coefficients 


     atomic species   valence    mass     pseudopotential
        B              3.00    10.81100     B ( 1.00)

     24 Sym. Ops., with inversion, found



   Cartesian axes

     site n.     atom                  positions (alat units)
         1           B   tau(   1) = (   0.3333330   0.0000000   0.0000000  )
         2           B   tau(   2) = (   0.6666670   0.0000000   0.0000000  )
         3           B   tau(   3) = (  -0.1666665   0.2886748   0.0000000  )
         4           B   tau(   4) = (   0.1666665   0.2886748   0.0000000  )
         5           B   tau(   5) = (   0.5000005   0.2886748   0.0000000  )
         6           B   tau(   6) = (  -0.3333335   0.5773506   0.0000000  )
         7           B   tau(   7) = (  -0.0000005   0.5773506   0.0000000  )
         8           B   tau(   8) = (   0.3333335   0.5773506   0.0000000  )

     number of k points=     8  Marzari-Vanderbilt smearing, width (Ry)=  0.0350
                       cart. coord. in units 2pi/alat
        k(    1) = (   0.0000000   0.0000000   0.0000000), wk =   0.0408163
        k(    2) = (   0.0000000   0.1649572   0.0000000), wk =   0.2448980
        k(    3) = (   0.0000000   0.3299144   0.0000000), wk =   0.2448980
        k(    4) = (   0.0000000   0.4948717   0.0000000), wk =   0.2448980
        k(    5) = (   0.1428571   0.2474358   0.0000000), wk =   0.2448980
        k(    6) = (   0.1428571   0.4123930   0.0000000), wk =   0.4897959
        k(    7) = (   0.1428571   0.5773503   0.0000000), wk =   0.2448980
        k(    8) = (   0.2857143   0.4948717   0.0000000), wk =   0.2448980

     Dense  grid:   122815 G-vectors     FFT dimensions: (  54,  54, 108)

     Estimated max dynamical RAM per process >     217.35 MB

     Initial potential from superposition of free atoms

     starting charge      23.9977, renormalised to      24.0000

     negative rho (up, down):  4.948E-05 0.000E+00
     Starting wfcs are   32 randomized atomic wfcs

     total cpu time spent up to now is        5.2 secs

     per-process dynamical memory:   118.6 Mb

     Self-consistent Calculation

     iteration #  1     ecut=    70.00 Ry     beta= 0.70
     Davidson diagonalization with overlap
     ethr =  1.00E-02,  avg # of iterations =  2.0

     negative rho (up, down):  3.634E-04 0.000E+00

     total cpu time spent up to now is       13.6 secs

     total energy              =     -49.87538333 Ry
     estimated scf accuracy    <       0.65239544 Ry

     iteration #  2     ecut=    70.00 Ry     beta= 0.70
     Davidson diagonalization with overlap
     ethr =  2.72E-03,  avg # of iterations =  2.0

     negative rho (up, down):  6.457E-04 0.000E+00

     total cpu time spent up to now is       21.8 secs

     total energy              =     -49.98105325 Ry
     estimated scf accuracy    <       0.01631923 Ry

     iteration #  3     ecut=    70.00 Ry     beta= 0.70
     Davidson diagonalization with overlap
     ethr =  6.80E-05,  avg # of iterations =  5.0

     negative rho (up, down):  7.421E-04 0.000E+00

     total cpu time spent up to now is       34.6 secs

     total energy              =     -49.98513474 Ry
     estimated scf accuracy    <       0.00457324 Ry

     iteration #  4     ecut=    70.00 Ry     beta= 0.70
     Davidson diagonalization with overlap
     ethr =  1.91E-05,  avg # of iterations =  2.8

     negative rho (up, down):  8.422E-04 0.000E+00

     total cpu time spent up to now is       30.1 secs

     total energy              =     -49.98614098 Ry
     estimated scf accuracy    <       0.00016650 Ry

     iteration #  5     ecut=    70.00 Ry     beta= 0.70
     Davidson diagonalization with overlap
     ethr =  6.94E-07,  avg # of iterations =  4.8

     negative rho (up, down):  8.522E-04 0.000E+00

     total cpu time spent up to now is       40.3 secs

     total energy              =     -49.98616081 Ry
     estimated scf accuracy    <       0.00001523 Ry

     iteration #  6     ecut=    70.00 Ry     beta= 0.70
     Davidson diagonalization with overlap
     ethr =  6.35E-08,  avg # of iterations =  3.0

     negative rho (up, down):  8.526E-04 0.000E+00

     total cpu time spent up to now is       50.2 secs

     End of self-consistent calculation

          k = 0.0000 0.0000 0.0000 ( 15261 PWs)   bands (ev):

   -16.1685 -12.0834 -11.9994 -11.9994  -9.7868  -9.7868  -7.6418  -7.0422
    -2.2298  -2.2298  -0.7382  -0.2290  -0.2289  -0.0040  -0.0040   0.4035

          k = 0.0000 0.1650 0.0000 ( 15320 PWs)   bands (ev):

   -16.0781 -12.9451 -12.0811 -11.2243  -9.8608  -9.5576  -7.2794  -6.9041
    -3.1177  -2.9823  -2.0040  -0.8217  -0.1235   0.8333   0.9599   1.2660

          k = 0.0000 0.3299 0.0000 ( 15364 PWs)   bands (ev):

   -15.8168 -13.7882 -12.2333 -10.9348  -9.4844  -8.9987  -6.7434  -6.4994
    -4.4351  -3.9410  -3.4090  -1.3769  -0.4183   2.1717   2.4817   2.6208

          k = 0.0000 0.4949 0.0000 ( 15370 PWs)   bands (ev):

   -15.4538 -14.4543 -12.3346 -11.0091  -8.7294  -8.4231  -6.8671  -5.9067
    -5.4060  -4.5204  -4.1651  -1.6612  -0.6166   3.1082   3.4825   3.6654

          k = 0.1429 0.2474 0.0000 ( 15339 PWs)   bands (ev):

   -15.9014 -13.5533 -12.2959 -10.7154  -9.8952  -9.0814  -6.8584  -6.6318
    -4.0933  -3.7039  -2.9629  -1.6921   0.4489   1.3779   1.5262   2.3635

          k = 0.1429 0.4124 0.0000 ( 15382 PWs)   bands (ev):

   -15.5718 -14.2273 -12.5455 -10.4979  -9.4112  -8.4358  -6.9242  -6.1123
    -4.8050  -4.2742  -4.0609  -2.2887   0.4822   2.3120   2.4995   3.3557

          k = 0.1429 0.5774 0.0000 ( 15332 PWs)   bands (ev):

   -15.2845 -14.6398 -12.6396 -10.5194  -8.8574  -8.1027  -7.4025  -5.6221
    -5.1443  -4.7708  -4.2248  -2.4720   0.4106   2.8330   3.0075   3.7530

          k = 0.2857 0.4949 0.0000 ( 15331 PWs)   bands (ev):

   -15.2033 -14.6910 -12.8654  -9.7685  -9.3860  -7.9803  -7.7552  -5.5210
    -4.7276  -4.5924  -4.4888  -2.9929   1.7310   2.4641   2.4711   3.0078

     the Fermi energy is    -0.6758 ev

!    total energy              =     -49.98616498 Ry
     estimated scf accuracy    <       0.00000039 Ry
     smearing contrib. (-TS)   =      -0.00114355 Ry
     internal energy E=F+TS    =     -49.98502143 Ry

     The total energy is F=E-TS. E is the sum of the following terms:
     one-electron contribution =    -178.64287951 Ry
     hartree contribution      =      93.81479533 Ry
     xc contribution           =     -23.11752170 Ry
     ewald contribution        =      57.96058445 Ry

     convergence has been achieved in   6 iterations

     Writing all to output data dir ../../outdir/borophene.save/

     init_run     :      6.50s CPU      5.04s WALL (       1 calls)
     electrons    :     74.43s CPU     44.99s WALL (       1 calls)

     Called by init_run:
     wfcinit      :      5.48s CPU      4.09s WALL (       1 calls)
     potinit      :      0.18s CPU      0.16s WALL (       1 calls)
     hinit0       :      0.70s CPU      0.62s WALL (       1 calls)

     Called by electrons:
     c_bands      :     59.87s CPU     33.66s WALL (       6 calls)
     sum_band     :     12.97s CPU      9.93s WALL (       6 calls)
     v_of_rho     :      1.13s CPU      0.85s WALL (       7 calls)
     newd         :      0.52s CPU      0.60s WALL (       7 calls)
     mix_rho      :      0.14s CPU      0.13s WALL (       6 calls)

     Called by c_bands:
     init_us_2    :      0.58s CPU      0.57s WALL (     104 calls)
     init_us_2:cp :      0.58s CPU      0.57s WALL (     104 calls)
     cegterg      :     58.87s CPU     32.78s WALL (      48 calls)

     Called by *egterg:
     cdiaghg      :      0.11s CPU      0.08s WALL (     204 calls)
     h_psi        :     59.00s CPU     45.52s WALL (     212 calls)
     s_psi        :      1.24s CPU      0.76s WALL (     212 calls)
     g_psi        :      0.16s CPU      0.16s WALL (     156 calls)

     Called by h_psi:
     h_psi:calbec :      1.34s CPU      1.39s WALL (     212 calls)
     vloc_psi     :     56.27s CPU     43.18s WALL (     212 calls)
     add_vuspsi   :      1.20s CPU      0.74s WALL (     212 calls)

     General routines
     calbec       :      1.84s CPU      1.77s WALL (     260 calls)
     fft          :      0.86s CPU      0.75s WALL (      77 calls)
     ffts         :      0.04s CPU      0.04s WALL (       6 calls)
     fftw         :     57.40s CPU     43.73s WALL (    5544 calls)

     Parallel routines

     PWSCF        :   1m21.04s CPU     50.28s WALL


   This run was terminated on:  11:52:14   3Jul2025            

=------------------------------------------------------------------------------=
   JOB DONE.
=------------------------------------------------------------------------------=
