
     Program PWSCF v.7.2 starts on  3Jul2025 at 11: 2:48 

     This program is part of the open-source Quantum ESPRESSO suite
     for quantum simulation of materials; please cite
         "P. Giannozzi et al., J. Phys.:Condens. Matter 21 395502 (2009);
         "P. Giannozzi et al., J. Phys.:Condens. Matter 29 465901 (2017);
         "P. Giannozzi et al., J. Chem. Phys. 152 154105 (2020);
          URL http://www.quantum-espresso.org", 
     in publications or presentations arising from this work. More details at
     http://www.quantum-espresso.org/quote

     Parallel version (MPI & OpenMP), running on       2 processor cores
     Number of MPI processes:                 1
     Threads/MPI process:                     2

     MPI processes distributed on     1 nodes
     348 MiB available memory on the printing compute node when the environment starts

     Reading input from ../latticeparam/alpha_60_9.58.in

     Current dimensions of program PWSCF are:
     Max number of different atomic species (ntypx) = 10
     Max number of k-points (npk) =  40000
     Max angular momentum in pseudopotentials (lmaxx) =  4
     file B.pbesol-n-rrkjus_psl.1.0.0.UPF: wavefunction(s)  2S renormalized

     IMPORTANT: XC functional enforced from input :
     Exchange-correlation= PBESOL
                           (   1   4  10   8   0   0   0)
     Any further DFT definition will be discarded
     Please, verify this is what you really want


     Subspace diagonalization in iterative solution of the eigenvalue problem:
     a serial algorithm will be used


     G-vector sticks info
     --------------------
     sticks:   dense  smooth     PW     G-vecs:    dense   smooth      PW
     Sum        1519    1519    421                95789    95789   14101

     Using Slab Decomposition



     bravais-lattice index     =            4
     lattice parameter (alat)  =       9.5800  a.u.
     unit-cell volume          =    1522.8501 (a.u.)^3
     number of atoms/cell      =            8
     number of atomic types    =            1
     number of electrons       =        24.00
     number of Kohn-Sham states=           16
     kinetic-energy cutoff     =      60.0000  Ry
     charge density cutoff     =     240.0000  Ry
     scf convergence threshold =      1.0E-06
     mixing beta               =       0.7000
     number of iterations used =            8  plain     mixing
     Exchange-correlation= PBESOL
                           (   1   4  10   8   0   0   0)

     celldm(1)=   9.580000  celldm(2)=   0.000000  celldm(3)=   2.000000
     celldm(4)=   0.000000  celldm(5)=   0.000000  celldm(6)=   0.000000

     crystal axes: (cart. coord. in units of alat)
               a(1) = (   1.000000   0.000000   0.000000 )  
               a(2) = (  -0.500000   0.866025   0.000000 )  
               a(3) = (   0.000000   0.000000   2.000000 )  

     reciprocal axes: (cart. coord. in units 2 pi/alat)
               b(1) = (  1.000000  0.577350 -0.000000 )  
               b(2) = (  0.000000  1.154701  0.000000 )  
               b(3) = (  0.000000 -0.000000  0.500000 )  


     PseudoPot. # 1 for B  read from file:
     ../../pseudo/B.pbesol-n-rrkjus_psl.1.0.0.UPF
     MD5 check sum: a3839a09b1a4e02f2a06a66adc9253fc
     Pseudo is Ultrasoft + core correction, Zval =  3.0
     Generated using &quot;atomic&quot; code by A. Dal Corso  v.6.3MaX
     Using radial grid of 1059 points,  4 beta functions with: 
                l(1) =   0
                l(2) =   0
                l(3) =   1
                l(4) =   1
     Q(r) pseudized with 0 coefficients 


     atomic species   valence    mass     pseudopotential
        B              3.00    10.81100     B ( 1.00)

     24 Sym. Ops., with inversion, found



   Cartesian axes

     site n.     atom                  positions (alat units)
         1           B   tau(   1) = (   0.3333330   0.0000000   0.0000000  )
         2           B   tau(   2) = (   0.6666670   0.0000000   0.0000000  )
         3           B   tau(   3) = (  -0.1666665   0.2886748   0.0000000  )
         4           B   tau(   4) = (   0.1666665   0.2886748   0.0000000  )
         5           B   tau(   5) = (   0.5000005   0.2886748   0.0000000  )
         6           B   tau(   6) = (  -0.3333335   0.5773506   0.0000000  )
         7           B   tau(   7) = (  -0.0000005   0.5773506   0.0000000  )
         8           B   tau(   8) = (   0.3333335   0.5773506   0.0000000  )

     number of k points=    12  Marzari-Vanderbilt smearing, width (Ry)=  0.0350
                       cart. coord. in units 2pi/alat
        k(    1) = (   0.0000000   0.0000000   0.0000000), wk =   0.0246914
        k(    2) = (   0.0000000   0.1283001   0.0000000), wk =   0.1481481
        k(    3) = (   0.0000000   0.2566001   0.0000000), wk =   0.1481481
        k(    4) = (   0.0000000   0.3849002   0.0000000), wk =   0.1481481
        k(    5) = (   0.0000000   0.5132002   0.0000000), wk =   0.1481481
        k(    6) = (   0.1111111   0.1924501   0.0000000), wk =   0.1481481
        k(    7) = (   0.1111111   0.3207501   0.0000000), wk =   0.2962963
        k(    8) = (   0.1111111   0.4490502   0.0000000), wk =   0.2962963
        k(    9) = (   0.1111111   0.5773503   0.0000000), wk =   0.1481481
        k(   10) = (   0.2222222   0.3849002   0.0000000), wk =   0.1481481
        k(   11) = (   0.2222222   0.5132002   0.0000000), wk =   0.2962963
        k(   12) = (   0.3333333   0.5773503   0.0000000), wk =   0.0493827

     Dense  grid:    95789 G-vectors     FFT dimensions: (  48,  48,  96)

     Estimated max dynamical RAM per process >     179.52 MB

     Check: negative core charge=   -0.000002

     Initial potential from superposition of free atoms

     starting charge      23.9977, renormalised to      24.0000

     negative rho (up, down):  1.021E-07 0.000E+00
     Starting wfcs are   32 randomized atomic wfcs

     total cpu time spent up to now is        6.4 secs

     per-process dynamical memory:   103.5 Mb

     Self-consistent Calculation

     iteration #  1     ecut=    60.00 Ry     beta= 0.70
     Davidson diagonalization with overlap
     ethr =  1.00E-02,  avg # of iterations =  2.0

     negative rho (up, down):  8.132E-05 0.000E+00

     total cpu time spent up to now is       18.6 secs

     total energy              =     -49.86939081 Ry
     estimated scf accuracy    <       0.68887456 Ry

     iteration #  2     ecut=    60.00 Ry     beta= 0.70
     Davidson diagonalization with overlap
     ethr =  2.87E-03,  avg # of iterations =  2.0

     negative rho (up, down):  2.153E-04 0.000E+00

     total cpu time spent up to now is       30.3 secs

     total energy              =     -49.98179910 Ry
     estimated scf accuracy    <       0.01785583 Ry

     iteration #  3     ecut=    60.00 Ry     beta= 0.70
     Davidson diagonalization with overlap
     ethr =  7.44E-05,  avg # of iterations =  5.4

     negative rho (up, down):  2.714E-04 0.000E+00

     total cpu time spent up to now is       32.0 secs

     total energy              =     -49.98635997 Ry
     estimated scf accuracy    <       0.00471048 Ry

     iteration #  4     ecut=    60.00 Ry     beta= 0.70
     Davidson diagonalization with overlap
     ethr =  1.96E-05,  avg # of iterations =  2.9

     negative rho (up, down):  3.330E-04 0.000E+00

     total cpu time spent up to now is       44.1 secs

     total energy              =     -49.98739146 Ry
     estimated scf accuracy    <       0.00016682 Ry

     iteration #  5     ecut=    60.00 Ry     beta= 0.70
     Davidson diagonalization with overlap
     c_bands:  1 eigenvalues not converged
     ethr =  6.95E-07,  avg # of iterations =  5.3

     negative rho (up, down):  3.377E-04 0.000E+00

     total cpu time spent up to now is       59.9 secs

     total energy              =     -49.98741084 Ry
     estimated scf accuracy    <       0.00001620 Ry

     iteration #  6     ecut=    60.00 Ry     beta= 0.70
     Davidson diagonalization with overlap
     ethr =  6.75E-08,  avg # of iterations =  2.8

     negative rho (up, down):  3.377E-04 0.000E+00

     total cpu time spent up to now is       72.5 secs

     End of self-consistent calculation

          k = 0.0000 0.0000 0.0000 ( 11945 PWs)   bands (ev):

   -16.1956 -12.0841 -12.0034 -12.0034  -9.7584  -9.7583  -7.6310  -7.0617
    -2.1404  -2.1404  -0.6661  -0.1537  -0.1537   0.1228   0.1228   0.4903

          k = 0.0000 0.1283 0.0000 ( 11961 PWs)   bands (ev):

   -16.1403 -12.7524 -12.0546 -11.3789  -9.8266  -9.6172  -7.3933  -6.9769
    -2.7466  -2.6555  -1.6164  -0.5982   0.0036   0.6921   0.7795   1.1009

          k = 0.0000 0.2566 0.0000 ( 11933 PWs)   bands (ev):

   -15.9777 -13.4354 -12.1681 -10.9676  -9.7348  -9.2459  -6.9204  -6.7254
    -3.7856  -3.4959  -2.7686  -1.0992  -0.2126   1.7365   1.9605   2.0963

          k = 0.0000 0.3849 0.0000 ( 11952 PWs)   bands (ev):

   -15.7223 -14.0526 -12.2771 -10.9440  -9.2169  -8.7613  -6.6806  -6.3218
    -4.7503  -4.0276  -3.8001  -1.4453  -0.4341   2.7668   3.1384   3.2546

          k = 0.0000 0.5132 0.0000 ( 11964 PWs)   bands (ev):

   -15.4413 -14.5189 -12.3400 -11.0066  -8.6576  -8.3605  -6.8838  -5.8491
    -5.3945  -4.5926  -4.0874  -1.6202  -0.5605   3.3330   3.6912   3.8759

          k = 0.1111 0.1925 0.0000 ( 11958 PWs)   bands (ev):

   -16.0312 -13.2471 -12.1811 -10.9523  -9.8916  -9.3221  -7.0466  -6.8085
    -3.5292  -3.2450  -2.4158  -1.2538   0.3591   1.2352   1.2987   1.7751

          k = 0.1111 0.3208 0.0000 ( 11933 PWs)   bands (ev):

   -15.8201 -13.8241 -12.3664 -10.6569  -9.6968  -8.8405  -6.7412  -6.4788
    -4.3597  -3.9108  -3.3679  -1.8074   0.3617   2.0352   2.0658   3.0350

          k = 0.1111 0.4491 0.0000 ( 11949 PWs)   bands (ev):

   -15.5344 -14.3507 -12.5035 -10.6573  -9.1282  -8.3645  -6.9344  -6.0180
    -4.9496  -4.2519  -4.1652  -2.1185   0.2252   2.7745   3.1787   3.5778

          k = 0.1111 0.5774 0.0000 ( 11956 PWs)   bands (ev):

   -15.3346 -14.6338 -12.5524 -10.6819  -8.7533  -8.1435  -7.2384  -5.6661
    -5.2111  -4.7511  -4.1237  -2.2193   0.1693   3.1978   3.2618   4.1559

          k = 0.2222 0.3849 0.0000 ( 11960 PWs)   bands (ev):

   -15.5697 -14.2606 -12.6450 -10.1674  -9.6418  -8.3453  -7.0010  -6.0815
    -4.5432  -4.3369  -4.0248  -2.4895   1.1590   2.1050   2.3924   3.4904

          k = 0.2222 0.5132 0.0000 ( 11963 PWs)   bands (ev):

   -15.2741 -14.6583 -12.8095 -10.0244  -9.2001  -8.0132  -7.5973  -5.5952
    -4.7052  -4.6688  -4.3048  -2.8222   1.3525   2.7281   2.9488   3.3037

          k = 0.3333 0.5774 0.0000 ( 11964 PWs)   bands (ev):

   -14.9711 -14.9711 -12.9333  -9.4367  -9.4366  -8.0142  -7.8859  -5.1166
    -5.1165  -4.4516  -4.4516  -3.0952   2.4488   2.4488   2.8852   2.8852

     the Fermi energy is    -0.6095 ev

!    total energy              =     -49.98741530 Ry
     estimated scf accuracy    <       0.00000077 Ry
     smearing contrib. (-TS)   =       0.00020676 Ry
     internal energy E=F+TS    =     -49.98762206 Ry

     The total energy is F=E-TS. E is the sum of the following terms:
     one-electron contribution =    -179.33659523 Ry
     hartree contribution      =      94.23806087 Ry
     xc contribution           =     -23.21268207 Ry
     ewald contribution        =      58.32359437 Ry

     convergence has been achieved in   6 iterations

     Writing all to output data dir ../../outdir/borophene.save/

     init_run     :      9.72s CPU      6.31s WALL (       1 calls)
     electrons    :    113.37s CPU     66.05s WALL (       1 calls)

     Called by init_run:
     wfcinit      :      8.42s CPU      5.16s WALL (       1 calls)
     potinit      :      0.21s CPU      0.13s WALL (       1 calls)
     hinit0       :      0.93s CPU      0.83s WALL (       1 calls)

     Called by electrons:
     c_bands      :     92.04s CPU     50.42s WALL (       6 calls)
     sum_band     :     19.71s CPU     14.33s WALL (       6 calls)
     v_of_rho     :      1.20s CPU      0.77s WALL (       7 calls)
     newd         :      0.48s CPU      0.58s WALL (       7 calls)
     mix_rho      :      0.13s CPU      0.12s WALL (       6 calls)

     Called by c_bands:
     init_us_2    :      1.02s CPU      0.79s WALL (     156 calls)
     init_us_2:cp :      1.01s CPU      0.79s WALL (     156 calls)
     cegterg      :     90.01s CPU     48.82s WALL (      72 calls)

     Called by *egterg:
     cdiaghg      :      0.20s CPU      0.14s WALL (     318 calls)
     h_psi        :     86.66s CPU     46.11s WALL (     330 calls)
     s_psi        :      2.74s CPU      1.65s WALL (     330 calls)
     g_psi        :      0.47s CPU      0.43s WALL (     246 calls)

     Called by h_psi:
     h_psi:calbec :      4.09s CPU      2.55s WALL (     330 calls)
     vloc_psi     :     79.34s CPU     41.56s WALL (     330 calls)
     add_vuspsi   :      2.61s CPU      1.44s WALL (     330 calls)

     General routines
     calbec       :      5.31s CPU      3.36s WALL (     402 calls)
     fft          :      1.13s CPU      0.92s WALL (      77 calls)
     ffts         :      0.04s CPU      0.04s WALL (       6 calls)
     fftw         :     81.47s CPU     45.33s WALL (    8344 calls)

     Parallel routines

     PWSCF        :   2m 3.24s CPU   1m12.68s WALL


   This run was terminated on:  11: 4: 1   3Jul2025            

=------------------------------------------------------------------------------=
   JOB DONE.
=------------------------------------------------------------------------------=
