
     Program PWSCF v.7.2 starts on  3Jul2025 at 11:50:40 

     This program is part of the open-source Quantum ESPRESSO suite
     for quantum simulation of materials; please cite
         "P. Giannozzi et al., J. Phys.:Condens. Matter 21 395502 (2009);
         "P. Giannozzi et al., J. Phys.:Condens. Matter 29 465901 (2017);
         "P. Giannozzi et al., J. Chem. Phys. 152 154105 (2020);
          URL http://www.quantum-espresso.org", 
     in publications or presentations arising from this work. More details at
     http://www.quantum-espresso.org/quote

     Parallel version (MPI & OpenMP), running on       2 processor cores
     Number of MPI processes:                 1
     Threads/MPI process:                     2

     MPI processes distributed on     1 nodes
     367 MiB available memory on the printing compute node when the environment starts

     Reading input from ../latticeparam/alpha_7_9.62.in

     Current dimensions of program PWSCF are:
     Max number of different atomic species (ntypx) = 10
     Max number of k-points (npk) =  40000
     Max angular momentum in pseudopotentials (lmaxx) =  4
     file B.pbesol-n-rrkjus_psl.1.0.0.UPF: wavefunction(s)  2S renormalized

     IMPORTANT: XC functional enforced from input :
     Exchange-correlation= PBESOL
                           (   1   4  10   8   0   0   0)
     Any further DFT definition will be discarded
     Please, verify this is what you really want


     Subspace diagonalization in iterative solution of the eigenvalue problem:
     a serial algorithm will be used


     G-vector sticks info
     --------------------
     sticks:   dense  smooth     PW     G-vecs:    dense   smooth      PW
     Sum        1789    1789    499               122071   122071   17567

     Using Slab Decomposition



     bravais-lattice index     =            4
     lattice parameter (alat)  =       9.6200  a.u.
     unit-cell volume          =    1542.0052 (a.u.)^3
     number of atoms/cell      =            8
     number of atomic types    =            1
     number of electrons       =        24.00
     number of Kohn-Sham states=           16
     kinetic-energy cutoff     =      70.0000  Ry
     charge density cutoff     =     280.0000  Ry
     scf convergence threshold =      1.0E-06
     mixing beta               =       0.7000
     number of iterations used =            8  plain     mixing
     Exchange-correlation= PBESOL
                           (   1   4  10   8   0   0   0)

     celldm(1)=   9.620000  celldm(2)=   0.000000  celldm(3)=   2.000000
     celldm(4)=   0.000000  celldm(5)=   0.000000  celldm(6)=   0.000000

     crystal axes: (cart. coord. in units of alat)
               a(1) = (   1.000000   0.000000   0.000000 )  
               a(2) = (  -0.500000   0.866025   0.000000 )  
               a(3) = (   0.000000   0.000000   2.000000 )  

     reciprocal axes: (cart. coord. in units 2 pi/alat)
               b(1) = (  1.000000  0.577350 -0.000000 )  
               b(2) = (  0.000000  1.154701  0.000000 )  
               b(3) = (  0.000000 -0.000000  0.500000 )  


     PseudoPot. # 1 for B  read from file:
     ../../pseudo/B.pbesol-n-rrkjus_psl.1.0.0.UPF
     MD5 check sum: a3839a09b1a4e02f2a06a66adc9253fc
     Pseudo is Ultrasoft + core correction, Zval =  3.0
     Generated using &quot;atomic&quot; code by A. Dal Corso  v.6.3MaX
     Using radial grid of 1059 points,  4 beta functions with: 
                l(1) =   0
                l(2) =   0
                l(3) =   1
                l(4) =   1
     Q(r) pseudized with 0 coefficients 


     atomic species   valence    mass     pseudopotential
        B              3.00    10.81100     B ( 1.00)

     24 Sym. Ops., with inversion, found



   Cartesian axes

     site n.     atom                  positions (alat units)
         1           B   tau(   1) = (   0.3333330   0.0000000   0.0000000  )
         2           B   tau(   2) = (   0.6666670   0.0000000   0.0000000  )
         3           B   tau(   3) = (  -0.1666665   0.2886748   0.0000000  )
         4           B   tau(   4) = (   0.1666665   0.2886748   0.0000000  )
         5           B   tau(   5) = (   0.5000005   0.2886748   0.0000000  )
         6           B   tau(   6) = (  -0.3333335   0.5773506   0.0000000  )
         7           B   tau(   7) = (  -0.0000005   0.5773506   0.0000000  )
         8           B   tau(   8) = (   0.3333335   0.5773506   0.0000000  )

     number of k points=     8  Marzari-Vanderbilt smearing, width (Ry)=  0.0350
                       cart. coord. in units 2pi/alat
        k(    1) = (   0.0000000   0.0000000   0.0000000), wk =   0.0408163
        k(    2) = (   0.0000000   0.1649572   0.0000000), wk =   0.2448980
        k(    3) = (   0.0000000   0.3299144   0.0000000), wk =   0.2448980
        k(    4) = (   0.0000000   0.4948717   0.0000000), wk =   0.2448980
        k(    5) = (   0.1428571   0.2474358   0.0000000), wk =   0.2448980
        k(    6) = (   0.1428571   0.4123930   0.0000000), wk =   0.4897959
        k(    7) = (   0.1428571   0.5773503   0.0000000), wk =   0.2448980
        k(    8) = (   0.2857143   0.4948717   0.0000000), wk =   0.2448980

     Dense  grid:   122071 G-vectors     FFT dimensions: (  54,  54, 108)

     Estimated max dynamical RAM per process >     216.16 MB

     Initial potential from superposition of free atoms

     starting charge      23.9977, renormalised to      24.0000

     negative rho (up, down):  4.797E-05 0.000E+00
     Starting wfcs are   32 randomized atomic wfcs

     total cpu time spent up to now is        4.9 secs

     per-process dynamical memory:   118.1 Mb

     Self-consistent Calculation

     iteration #  1     ecut=    70.00 Ry     beta= 0.70
     Davidson diagonalization with overlap
     ethr =  1.00E-02,  avg # of iterations =  2.0

     negative rho (up, down):  3.713E-04 0.000E+00

     total cpu time spent up to now is       14.0 secs

     total energy              =     -49.87373473 Ry
     estimated scf accuracy    <       0.66441378 Ry

     iteration #  2     ecut=    70.00 Ry     beta= 0.70
     Davidson diagonalization with overlap
     ethr =  2.77E-03,  avg # of iterations =  2.0

     negative rho (up, down):  6.415E-04 0.000E+00

     total cpu time spent up to now is       22.7 secs

     total energy              =     -49.98148380 Ry
     estimated scf accuracy    <       0.01671515 Ry

     iteration #  3     ecut=    70.00 Ry     beta= 0.70
     Davidson diagonalization with overlap
     ethr =  6.96E-05,  avg # of iterations =  5.0

     negative rho (up, down):  7.360E-04 0.000E+00

     total cpu time spent up to now is       22.6 secs

     total energy              =     -49.98568698 Ry
     estimated scf accuracy    <       0.00465902 Ry

     iteration #  4     ecut=    70.00 Ry     beta= 0.70
     Davidson diagonalization with overlap
     ethr =  1.94E-05,  avg # of iterations =  2.8

     negative rho (up, down):  8.364E-04 0.000E+00

     total cpu time spent up to now is       34.2 secs

     total energy              =     -49.98671232 Ry
     estimated scf accuracy    <       0.00016814 Ry

     iteration #  5     ecut=    70.00 Ry     beta= 0.70
     Davidson diagonalization with overlap
     ethr =  7.01E-07,  avg # of iterations =  4.6

     negative rho (up, down):  8.465E-04 0.000E+00

     total cpu time spent up to now is       45.1 secs

     total energy              =     -49.98673156 Ry
     estimated scf accuracy    <       0.00001437 Ry

     iteration #  6     ecut=    70.00 Ry     beta= 0.70
     Davidson diagonalization with overlap
     ethr =  5.99E-08,  avg # of iterations =  2.9

     negative rho (up, down):  8.469E-04 0.000E+00

     total cpu time spent up to now is       42.8 secs

     End of self-consistent calculation

          k = 0.0000 0.0000 0.0000 ( 15237 PWs)   bands (ev):

   -16.1776 -12.0836 -12.0008 -12.0007  -9.7775  -9.7774  -7.6384  -7.0488
    -2.2003  -2.2003  -0.7145  -0.2043  -0.2042   0.0378   0.0379   0.4320

          k = 0.0000 0.1650 0.0000 ( 15244 PWs)   bands (ev):

   -16.0870 -12.9473 -12.0821 -11.2232  -9.8541  -9.5486  -7.2743  -6.9101
    -3.0903  -2.9548  -1.9871  -0.7997  -0.0979   0.8799   1.0060   1.2986

          k = 0.0000 0.3299 0.0000 ( 15262 PWs)   bands (ev):

   -15.8250 -13.7920 -12.2337 -10.9317  -9.4808  -8.9903  -6.7372  -6.5035
    -4.4106  -3.9156  -3.3989  -1.3574  -0.3951   2.2285   2.5373   2.6604

          k = 0.0000 0.4949 0.0000 ( 15228 PWs)   bands (ev):

   -15.4611 -14.4594 -12.3347 -11.0063  -8.7259  -8.4157  -6.8604  -5.9079
    -5.3825  -4.5156  -4.1414  -1.6431  -0.5947   3.1822   3.5491   3.6889

          k = 0.1429 0.2474 0.0000 ( 15267 PWs)   bands (ev):

   -15.9098 -13.5566 -12.2966 -10.7126  -9.8902  -9.0738  -6.8523  -6.6365
    -4.0671  -3.6793  -2.9505  -1.6747   0.4779   1.4094   1.5809   2.4153

          k = 0.1429 0.4124 0.0000 ( 15260 PWs)   bands (ev):

   -15.5794 -14.2319 -12.5463 -10.4938  -9.4064  -8.4298  -6.9172  -6.1145
    -4.7817  -4.2507  -4.0537  -2.2743   0.5105   2.3779   2.5375   3.3760

          k = 0.1429 0.5774 0.0000 ( 15250 PWs)   bands (ev):

   -15.2913 -14.6453 -12.6404 -10.5154  -8.8519  -8.0977  -7.3947  -5.6219
    -5.1221  -4.7671  -4.2022  -2.4585   0.4382   2.9052   3.0851   3.7991

          k = 0.2857 0.4949 0.0000 ( 15255 PWs)   bands (ev):

   -15.2099 -14.6966 -12.8669  -9.7627  -9.3805  -7.9758  -7.7479  -5.5204
    -4.7233  -4.5706  -4.4669  -2.9823   1.7664   2.5090   2.5381   3.0859

     the Fermi energy is    -0.6527 ev

!    total energy              =     -49.98673540 Ry
     estimated scf accuracy    <       0.00000026 Ry
     smearing contrib. (-TS)   =      -0.00117185 Ry
     internal energy E=F+TS    =     -49.98556355 Ry

     The total energy is F=E-TS. E is the sum of the following terms:
     one-electron contribution =    -178.87348109 Ry
     hartree contribution      =      93.95542146 Ry
     xc contribution           =     -23.14858855 Ry
     ewald contribution        =      58.08108463 Ry

     convergence has been achieved in   6 iterations

     Writing all to output data dir ../../outdir/borophene.save/

     init_run     :      6.43s CPU      4.83s WALL (       1 calls)
     electrons    :     75.76s CPU     37.92s WALL (       1 calls)

     Called by init_run:
     wfcinit      :      5.34s CPU      3.77s WALL (       1 calls)
     potinit      :      0.18s CPU      0.17s WALL (       1 calls)
     hinit0       :      0.75s CPU      0.69s WALL (       1 calls)

     Called by electrons:
     c_bands      :     60.71s CPU     36.68s WALL (       6 calls)
     sum_band     :     13.46s CPU     -0.21s WALL (       6 calls)
     v_of_rho     :      1.12s CPU      0.86s WALL (       7 calls)
     newd         :      0.51s CPU      0.64s WALL (       7 calls)
     mix_rho      :      0.15s CPU      0.13s WALL (       6 calls)

     Called by c_bands:
     init_us_2    :      0.67s CPU      0.60s WALL (     104 calls)
     init_us_2:cp :      0.67s CPU      0.60s WALL (     104 calls)
     cegterg      :     59.69s CPU     35.75s WALL (      48 calls)

     Called by *egterg:
     cdiaghg      :      0.11s CPU      0.09s WALL (     202 calls)
     h_psi        :     59.65s CPU     35.36s WALL (     210 calls)
     s_psi        :      1.27s CPU      0.86s WALL (     210 calls)
     g_psi        :      0.15s CPU      0.16s WALL (     154 calls)

     Called by h_psi:
     h_psi:calbec :      1.48s CPU      1.49s WALL (     210 calls)
     vloc_psi     :     56.73s CPU     32.85s WALL (     210 calls)
     add_vuspsi   :      1.24s CPU      0.80s WALL (     210 calls)

     General routines
     calbec       :      2.01s CPU      1.98s WALL (     258 calls)
     fft          :      0.93s CPU      0.82s WALL (      77 calls)
     ffts         :      0.04s CPU      0.03s WALL (       6 calls)
     fftw         :     57.77s CPU     33.63s WALL (    5546 calls)

     Parallel routines

     PWSCF        :   1m22.29s CPU     43.01s WALL


   This run was terminated on:  11:51:23   3Jul2025            

=------------------------------------------------------------------------------=
   JOB DONE.
=------------------------------------------------------------------------------=
