
     Program PWSCF v.7.2 starts on 22Jul2025 at 16: 4:35 

     This program is part of the open-source Quantum ESPRESSO suite
     for quantum simulation of materials; please cite
         "P. Giannozzi et al., J. Phys.:Condens. Matter 21 395502 (2009);
         "P. Giannozzi et al., J. Phys.:Condens. Matter 29 465901 (2017);
         "P. Giannozzi et al., J. Chem. Phys. 152 154105 (2020);
          URL http://www.quantum-espresso.org", 
     in publications or presentations arising from this work. More details at
     http://www.quantum-espresso.org/quote

     Parallel version (MPI & OpenMP), running on       2 processor cores
     Number of MPI processes:                 1
     Threads/MPI process:                     2

     MPI processes distributed on     1 nodes
     454 MiB available memory on the printing compute node when the environment starts

     Reading input from ../k/alpha_4.in

     Current dimensions of program PWSCF are:
     Max number of different atomic species (ntypx) = 10
     Max number of k-points (npk) =  40000
     Max angular momentum in pseudopotentials (lmaxx) =  4
     file B.pbesol-n-rrkjus_psl.1.0.0.UPF: wavefunction(s)  2S renormalized

     Subspace diagonalization in iterative solution of the eigenvalue problem:
     a serial algorithm will be used


     G-vector sticks info
     --------------------
     sticks:   dense  smooth     PW     G-vecs:    dense   smooth      PW
     Sum        1735    1735    475               117515   117515   16799

     Using Slab Decomposition



     bravais-lattice index     =            4
     lattice parameter (alat)  =       9.5000  a.u.
     unit-cell volume          =    1485.0171 (a.u.)^3
     number of atoms/cell      =            8
     number of atomic types    =            1
     number of electrons       =        24.00
     number of Kohn-Sham states=           16
     kinetic-energy cutoff     =      70.0000  Ry
     charge density cutoff     =     280.0000  Ry
     scf convergence threshold =      1.0E-06
     mixing beta               =       0.7000
     number of iterations used =            8  plain     mixing
     Exchange-correlation= PBESOL
                           (   1   4  10   8   0   0   0)

     celldm(1)=   9.500000  celldm(2)=   0.000000  celldm(3)=   2.000000
     celldm(4)=   0.000000  celldm(5)=   0.000000  celldm(6)=   0.000000

     crystal axes: (cart. coord. in units of alat)
               a(1) = (   1.000000   0.000000   0.000000 )  
               a(2) = (  -0.500000   0.866025   0.000000 )  
               a(3) = (   0.000000   0.000000   2.000000 )  

     reciprocal axes: (cart. coord. in units 2 pi/alat)
               b(1) = (  1.000000  0.577350 -0.000000 )  
               b(2) = (  0.000000  1.154701  0.000000 )  
               b(3) = (  0.000000 -0.000000  0.500000 )  


     PseudoPot. # 1 for B  read from file:
     ../../pseudo/B.pbesol-n-rrkjus_psl.1.0.0.UPF
     MD5 check sum: a3839a09b1a4e02f2a06a66adc9253fc
     Pseudo is Ultrasoft + core correction, Zval =  3.0
     Generated using &quot;atomic&quot; code by A. Dal Corso  v.6.3MaX
     Using radial grid of 1059 points,  4 beta functions with: 
                l(1) =   0
                l(2) =   0
                l(3) =   1
                l(4) =   1
     Q(r) pseudized with 0 coefficients 


     atomic species   valence    mass     pseudopotential
        B              3.00    10.81100     B ( 1.00)

     24 Sym. Ops., with inversion, found



   Cartesian axes

     site n.     atom                  positions (alat units)
         1           B   tau(   1) = (   0.3333330   0.0000000   0.0000000  )
         2           B   tau(   2) = (   0.6666670   0.0000000   0.0000000  )
         3           B   tau(   3) = (  -0.1666665   0.2886748   0.0000000  )
         4           B   tau(   4) = (   0.1666665   0.2886748   0.0000000  )
         5           B   tau(   5) = (   0.5000005   0.2886748   0.0000000  )
         6           B   tau(   6) = (  -0.3333335   0.5773506   0.0000000  )
         7           B   tau(   7) = (  -0.0000005   0.5773506   0.0000000  )
         8           B   tau(   8) = (   0.3333335   0.5773506   0.0000000  )

     number of k points=     4  Marzari-Vanderbilt smearing, width (Ry)=  0.0200
                       cart. coord. in units 2pi/alat
        k(    1) = (   0.0000000   0.0000000   0.0000000), wk =   0.1250000
        k(    2) = (   0.0000000   0.2886751   0.0000000), wk =   0.7500000
        k(    3) = (   0.0000000  -0.5773503   0.0000000), wk =   0.3750000
        k(    4) = (   0.2500000   0.4330127   0.0000000), wk =   0.7500000

     Dense  grid:   117515 G-vectors     FFT dimensions: (  54,  54, 108)

     Estimated max dynamical RAM per process >     194.59 MB

     Initial potential from superposition of free atoms

     starting charge      23.9977, renormalised to      24.0000

     negative rho (up, down):  3.125E-05 0.000E+00
     Starting wfcs are   32 randomized atomic wfcs

     total cpu time spent up to now is        3.3 secs

     per-process dynamical memory:    99.9 Mb

     Self-consistent Calculation

     iteration #  1     ecut=    70.00 Ry     beta= 0.70
     Davidson diagonalization with overlap
     ethr =  1.00E-02,  avg # of iterations =  2.2

     negative rho (up, down):  3.581E-04 0.000E+00

     total cpu time spent up to now is        7.8 secs

     total energy              =     -49.83771446 Ry
     estimated scf accuracy    <       0.76257239 Ry

     iteration #  2     ecut=    70.00 Ry     beta= 0.70
     Davidson diagonalization with overlap
     ethr =  3.18E-03,  avg # of iterations =  2.0

     negative rho (up, down):  6.542E-04 0.000E+00

     total cpu time spent up to now is       11.9 secs

     total energy              =     -49.96803096 Ry
     estimated scf accuracy    <       0.01566502 Ry

     iteration #  3     ecut=    70.00 Ry     beta= 0.70
     Davidson diagonalization with overlap
     ethr =  6.53E-05,  avg # of iterations =  5.0

     negative rho (up, down):  7.596E-04 0.000E+00

     total cpu time spent up to now is       17.1 secs

     total energy              =     -49.97175412 Ry
     estimated scf accuracy    <       0.00456662 Ry

     iteration #  4     ecut=    70.00 Ry     beta= 0.70
     Davidson diagonalization with overlap
     ethr =  1.90E-05,  avg # of iterations =  2.0

     negative rho (up, down):  8.838E-04 0.000E+00

     total cpu time spent up to now is        7.9 secs

     total energy              =     -49.97278489 Ry
     estimated scf accuracy    <       0.00020591 Ry

     iteration #  5     ecut=    70.00 Ry     beta= 0.70
     Davidson diagonalization with overlap
     c_bands:  1 eigenvalues not converged
     ethr =  8.58E-07,  avg # of iterations =  7.8

     negative rho (up, down):  8.895E-04 0.000E+00

     total cpu time spent up to now is       13.6 secs

     total energy              =     -49.97280698 Ry
     estimated scf accuracy    <       0.00001687 Ry

     iteration #  6     ecut=    70.00 Ry     beta= 0.70
     Davidson diagonalization with overlap
     ethr =  7.03E-08,  avg # of iterations =  2.5

     negative rho (up, down):  8.906E-04 0.000E+00

     total cpu time spent up to now is       74.9 secs

     total energy              =     -49.97281179 Ry
     estimated scf accuracy    <       0.00000254 Ry

     iteration #  7     ecut=    70.00 Ry     beta= 0.70
     Davidson diagonalization with overlap
     ethr =  1.06E-08,  avg # of iterations =  3.0

     negative rho (up, down):  8.906E-04 0.000E+00

     total cpu time spent up to now is       79.2 secs

     End of self-consistent calculation

          k = 0.0000 0.0000 0.0000 ( 14727 PWs)   bands (ev):

   -16.2176 -12.0714 -11.9924 -11.9924  -9.7095  -9.7094  -7.6152  -7.0798
    -2.0044  -2.0044  -0.5610  -0.0410  -0.0409   0.3017   0.3017   0.6146

          k = 0.0000 0.2887 0.0000 ( 14656 PWs)   bands (ev):

   -15.9406 -13.5963 -12.1841 -10.9115  -9.6093  -9.0831  -6.7882  -6.6477
    -3.9280  -3.5583  -2.9837  -1.1096  -0.1689   2.2359   2.4916   2.5359

          k = 0.0000-0.5774 0.0000 ( 14686 PWs)   bands (ev):

   -15.3932 -14.6108 -12.3330 -10.9960  -8.5257  -8.2530  -6.9157  -5.7268
    -5.3830  -4.7238  -3.9722  -1.5590  -0.4813   3.6099   4.0031   4.3080

          k = 0.2500 0.4330 0.0000 ( 14703 PWs)   bands (ev):

   -15.4348 -14.4741 -12.7488  -9.9511  -9.4821  -8.1101  -7.2705  -5.8364
    -4.3959  -4.3644  -4.3142  -2.6696   1.5810   2.4895   2.8382   3.8205

     the Fermi energy is    -0.4849 ev

!    total energy              =     -49.97281232 Ry
     estimated scf accuracy    <       0.00000002 Ry
     smearing contrib. (-TS)   =      -0.00123646 Ry
     internal energy E=F+TS    =     -49.97157586 Ry

     The total energy is F=E-TS. E is the sum of the following terms:
     one-electron contribution =    -180.27282540 Ry
     hartree contribution      =      94.82737654 Ry
     xc contribution           =     -23.34086744 Ry
     ewald contribution        =      58.81474043 Ry

     convergence has been achieved in   7 iterations

     Writing all to output data dir ../../outdir/borophene.save/

     init_run     :      4.06s CPU      3.23s WALL (       1 calls)
     electrons    :     42.58s CPU     75.91s WALL (       1 calls)

     Called by init_run:
     wfcinit      :      3.05s CPU      2.31s WALL (       1 calls)
     potinit      :      0.19s CPU      0.13s WALL (       1 calls)
     hinit0       :      0.72s CPU      0.64s WALL (       1 calls)

     Called by electrons:
     c_bands      :     33.22s CPU     68.37s WALL (       7 calls)
     sum_band     :      7.59s CPU      6.02s WALL (       7 calls)
     v_of_rho     :      1.25s CPU      0.91s WALL (       8 calls)
     newd         :      0.51s CPU      0.63s WALL (       8 calls)
     mix_rho      :      0.17s CPU      0.14s WALL (       7 calls)

     Called by c_bands:
     init_us_2    :      0.29s CPU      0.29s WALL (      60 calls)
     init_us_2:cp :      0.29s CPU      0.29s WALL (      60 calls)
     cegterg      :     32.67s CPU     67.92s WALL (      28 calls)

     Called by *egterg:
     cdiaghg      :      0.07s CPU      0.04s WALL (     126 calls)
     h_psi        :     32.88s CPU     68.29s WALL (     130 calls)
     s_psi        :      0.68s CPU      0.39s WALL (     130 calls)
     g_psi        :      0.10s CPU      0.09s WALL (      98 calls)

     Called by h_psi:
     h_psi:calbec :      0.72s CPU      0.72s WALL (     130 calls)
     vloc_psi     :     31.43s CPU     67.08s WALL (     130 calls)
     add_vuspsi   :      0.62s CPU      0.37s WALL (     130 calls)

     General routines
     calbec       :      0.97s CPU      0.94s WALL (     158 calls)
     fft          :      0.91s CPU      0.78s WALL (      88 calls)
     ffts         :      0.04s CPU      0.03s WALL (       7 calls)
     fftw         :     32.44s CPU     68.00s WALL (    3150 calls)

     Parallel routines

     PWSCF        :     46.75s CPU   1m19.29s WALL


   This run was terminated on:  16: 5:54  22Jul2025            

=------------------------------------------------------------------------------=
   JOB DONE.
=------------------------------------------------------------------------------=
