
     Program PWSCF v.7.2 starts on 22Jul2025 at 16:11:21 

     This program is part of the open-source Quantum ESPRESSO suite
     for quantum simulation of materials; please cite
         "P. Giannozzi et al., J. Phys.:Condens. Matter 21 395502 (2009);
         "P. Giannozzi et al., J. Phys.:Condens. Matter 29 465901 (2017);
         "P. Giannozzi et al., J. Chem. Phys. 152 154105 (2020);
          URL http://www.quantum-espresso.org", 
     in publications or presentations arising from this work. More details at
     http://www.quantum-espresso.org/quote

     Parallel version (MPI & OpenMP), running on       2 processor cores
     Number of MPI processes:                 1
     Threads/MPI process:                     2

     MPI processes distributed on     1 nodes
     427 MiB available memory on the printing compute node when the environment starts

     Reading input from ../k/alpha_10.in

     Current dimensions of program PWSCF are:
     Max number of different atomic species (ntypx) = 10
     Max number of k-points (npk) =  40000
     Max angular momentum in pseudopotentials (lmaxx) =  4
     file B.pbesol-n-rrkjus_psl.1.0.0.UPF: wavefunction(s)  2S renormalized

     Subspace diagonalization in iterative solution of the eigenvalue problem:
     a serial algorithm will be used


     G-vector sticks info
     --------------------
     sticks:   dense  smooth     PW     G-vecs:    dense   smooth      PW
     Sum        1735    1735    475               117515   117515   16907

     Using Slab Decomposition



     bravais-lattice index     =            4
     lattice parameter (alat)  =       9.5000  a.u.
     unit-cell volume          =    1485.0171 (a.u.)^3
     number of atoms/cell      =            8
     number of atomic types    =            1
     number of electrons       =        24.00
     number of Kohn-Sham states=           16
     kinetic-energy cutoff     =      70.0000  Ry
     charge density cutoff     =     280.0000  Ry
     scf convergence threshold =      1.0E-06
     mixing beta               =       0.7000
     number of iterations used =            8  plain     mixing
     Exchange-correlation= PBESOL
                           (   1   4  10   8   0   0   0)

     celldm(1)=   9.500000  celldm(2)=   0.000000  celldm(3)=   2.000000
     celldm(4)=   0.000000  celldm(5)=   0.000000  celldm(6)=   0.000000

     crystal axes: (cart. coord. in units of alat)
               a(1) = (   1.000000   0.000000   0.000000 )  
               a(2) = (  -0.500000   0.866025   0.000000 )  
               a(3) = (   0.000000   0.000000   2.000000 )  

     reciprocal axes: (cart. coord. in units 2 pi/alat)
               b(1) = (  1.000000  0.577350 -0.000000 )  
               b(2) = (  0.000000  1.154701  0.000000 )  
               b(3) = (  0.000000 -0.000000  0.500000 )  


     PseudoPot. # 1 for B  read from file:
     ../../pseudo/B.pbesol-n-rrkjus_psl.1.0.0.UPF
     MD5 check sum: a3839a09b1a4e02f2a06a66adc9253fc
     Pseudo is Ultrasoft + core correction, Zval =  3.0
     Generated using &quot;atomic&quot; code by A. Dal Corso  v.6.3MaX
     Using radial grid of 1059 points,  4 beta functions with: 
                l(1) =   0
                l(2) =   0
                l(3) =   1
                l(4) =   1
     Q(r) pseudized with 0 coefficients 


     atomic species   valence    mass     pseudopotential
        B              3.00    10.81100     B ( 1.00)

     24 Sym. Ops., with inversion, found



   Cartesian axes

     site n.     atom                  positions (alat units)
         1           B   tau(   1) = (   0.3333330   0.0000000   0.0000000  )
         2           B   tau(   2) = (   0.6666670   0.0000000   0.0000000  )
         3           B   tau(   3) = (  -0.1666665   0.2886748   0.0000000  )
         4           B   tau(   4) = (   0.1666665   0.2886748   0.0000000  )
         5           B   tau(   5) = (   0.5000005   0.2886748   0.0000000  )
         6           B   tau(   6) = (  -0.3333335   0.5773506   0.0000000  )
         7           B   tau(   7) = (  -0.0000005   0.5773506   0.0000000  )
         8           B   tau(   8) = (   0.3333335   0.5773506   0.0000000  )

     number of k points=    14  Marzari-Vanderbilt smearing, width (Ry)=  0.0200
                       cart. coord. in units 2pi/alat
        k(    1) = (   0.0000000   0.0000000   0.0000000), wk =   0.0200000
        k(    2) = (   0.0000000   0.1154701   0.0000000), wk =   0.1200000
        k(    3) = (   0.0000000   0.2309401   0.0000000), wk =   0.1200000
        k(    4) = (   0.0000000   0.3464102   0.0000000), wk =   0.1200000
        k(    5) = (   0.0000000   0.4618802   0.0000000), wk =   0.1200000
        k(    6) = (   0.0000000  -0.5773503   0.0000000), wk =   0.0600000
        k(    7) = (   0.1000000   0.1732051   0.0000000), wk =   0.1200000
        k(    8) = (   0.1000000   0.2886751   0.0000000), wk =   0.2400000
        k(    9) = (   0.1000000   0.4041452   0.0000000), wk =   0.2400000
        k(   10) = (   0.1000000   0.5196152   0.0000000), wk =   0.2400000
        k(   11) = (   0.2000000   0.3464102   0.0000000), wk =   0.1200000
        k(   12) = (   0.2000000   0.4618802   0.0000000), wk =   0.2400000
        k(   13) = (   0.2000000   0.5773503   0.0000000), wk =   0.1200000
        k(   14) = (   0.3000000   0.5196152   0.0000000), wk =   0.1200000

     Dense  grid:   117515 G-vectors     FFT dimensions: (  54,  54, 108)

     Estimated max dynamical RAM per process >     230.45 MB

     Initial potential from superposition of free atoms

     starting charge      23.9977, renormalised to      24.0000

     negative rho (up, down):  3.125E-05 0.000E+00
     Starting wfcs are   32 randomized atomic wfcs

     total cpu time spent up to now is        8.5 secs

     per-process dynamical memory:   137.2 Mb

     Self-consistent Calculation

     iteration #  1     ecut=    70.00 Ry     beta= 0.70
     Davidson diagonalization with overlap
     ethr =  1.00E-02,  avg # of iterations =  2.1

     negative rho (up, down):  3.583E-04 0.000E+00

     total cpu time spent up to now is       14.2 secs

     total energy              =     -49.85719207 Ry
     estimated scf accuracy    <       0.74214182 Ry

     iteration #  2     ecut=    70.00 Ry     beta= 0.70
     Davidson diagonalization with overlap
     ethr =  3.09E-03,  avg # of iterations =  2.0

     negative rho (up, down):  6.524E-04 0.000E+00

     total cpu time spent up to now is       29.7 secs

     total energy              =     -49.97946657 Ry
     estimated scf accuracy    <       0.01972586 Ry

     iteration #  3     ecut=    70.00 Ry     beta= 0.70
     Davidson diagonalization with overlap
     ethr =  8.22E-05,  avg # of iterations =  3.7

     negative rho (up, down):  7.610E-04 0.000E+00

     total cpu time spent up to now is       49.1 secs

     total energy              =     -49.98459725 Ry
     estimated scf accuracy    <       0.00512086 Ry

     iteration #  4     ecut=    70.00 Ry     beta= 0.70
     Davidson diagonalization with overlap
     ethr =  2.13E-05,  avg # of iterations =  4.6

     negative rho (up, down):  8.767E-04 0.000E+00

     total cpu time spent up to now is      113.5 secs

     total energy              =     -49.98570179 Ry
     estimated scf accuracy    <       0.00017252 Ry

     iteration #  5     ecut=    70.00 Ry     beta= 0.70
     Davidson diagonalization with overlap
     ethr =  7.19E-07,  avg # of iterations =  5.6

     negative rho (up, down):  8.866E-04 0.000E+00

     total cpu time spent up to now is      134.4 secs

     total energy              =     -49.98572271 Ry
     estimated scf accuracy    <       0.00001584 Ry

     iteration #  6     ecut=    70.00 Ry     beta= 0.70
     Davidson diagonalization with overlap
     ethr =  6.60E-08,  avg # of iterations =  2.3

     negative rho (up, down):  8.868E-04 0.000E+00

     total cpu time spent up to now is      136.7 secs

     End of self-consistent calculation

          k = 0.0000 0.0000 0.0000 ( 14727 PWs)   bands (ev):

   -16.2294 -12.0821 -12.0066 -12.0065  -9.7181  -9.7181  -7.6169  -7.0887
    -2.0180  -2.0180  -0.5672  -0.0527  -0.0526   0.2967   0.2967   0.6068

          k = 0.0000 0.1155 0.0000 ( 14724 PWs)   bands (ev):

   -16.1842 -12.6867 -12.0478 -11.4350  -9.7840  -9.6038  -7.4159  -7.0187
    -2.5334  -2.4565  -1.4197  -0.4477   0.1221   0.7840   0.8574   1.1393

          k = 0.0000 0.2309 0.0000 ( 14704 PWs)   bands (ev):

   -16.0504 -13.3114 -12.1444 -11.0031  -9.7674  -9.2957  -6.9876  -6.8104
    -3.4672  -3.2281  -2.4871  -0.9249  -0.0624   1.7280   1.9208   2.0263

          k = 0.0000 0.3464 0.0000 ( 14686 PWs)   bands (ev):

   -15.8366 -13.8905 -12.2469 -10.9134  -9.3833  -8.8735  -6.6739  -6.4723
    -4.3810  -3.8191  -3.4689  -1.2805  -0.2805   2.7116   3.0341   3.0573

          k = 0.0000 0.4619 0.0000 ( 14672 PWs)   bands (ev):

   -15.5727 -14.3796 -12.3199 -10.9716  -8.8355  -8.4579  -6.7488  -6.0384
    -5.0974  -4.2974  -3.9976  -1.4965  -0.4339   3.4903   3.6648   4.0029

          k = 0.0000-0.5774 0.0000 ( 14686 PWs)   bands (ev):

   -15.4056 -14.6227 -12.3460 -11.0033  -8.5373  -8.2640  -6.9234  -5.7359
    -5.3921  -4.7325  -3.9783  -1.5689  -0.4880   3.6025   3.9959   4.3031

          k = 0.1000 0.1732 0.0000 ( 14703 PWs)   bands (ev):

   -16.0946 -13.1399 -12.1476 -11.0365  -9.8570  -9.3660  -7.1071  -6.8794
    -3.2329  -2.9933  -2.1646  -1.0348   0.4201   1.2759   1.3528   1.7252

          k = 0.1000 0.2887 0.0000 ( 14703 PWs)   bands (ev):

   -15.9198 -13.6760 -12.3043 -10.7154  -9.7528  -8.9590  -6.7626  -6.6053
    -4.0460  -3.6426  -3.0623  -1.5645   0.4176   1.9824   2.1028   2.9113

          k = 0.1000 0.4041 0.0000 ( 14697 PWs)   bands (ev):

   -15.6744 -14.1856 -12.4380 -10.6793  -9.2881  -8.5121  -6.7581  -6.2116
    -4.6888  -4.0248  -3.9251  -1.8991   0.2702   2.8401   3.0035   3.3932

          k = 0.1000 0.5196 0.0000 ( 14691 PWs)   bands (ev):

   -15.4209 -14.5770 -12.5116 -10.7156  -8.7930  -8.1874  -7.0825  -5.7788
    -5.1013  -4.6039  -4.0329  -2.0616   0.1765   3.4022   3.7244   3.9928

          k = 0.2000 0.3464 0.0000 ( 14679 PWs)   bands (ev):

   -15.7099 -14.0944 -12.5485 -10.2932  -9.7141  -8.5065  -6.7984  -6.2715
    -4.4156  -4.0895  -3.7071  -2.2164   1.0864   2.0594   2.5000   3.3168

          k = 0.2000 0.4619 0.0000 ( 14676 PWs)   bands (ev):

   -15.4435 -14.5002 -12.7264 -10.1429  -9.3163  -8.1286  -7.2554  -5.8366
    -4.6002  -4.3697  -4.2237  -2.5936   1.2462   2.8322   2.9022   3.8337

          k = 0.2000 0.5774 0.0000 ( 14670 PWs)   bands (ev):

   -15.2562 -14.7364 -12.7889 -10.1377  -8.9837  -7.9747  -7.6060  -5.5090
    -4.7830  -4.7439  -4.1406  -2.7123   1.2389   3.1722   3.4995   3.6118

          k = 0.3000 0.5196 0.0000 ( 14665 PWs)   bands (ev):

   -15.1676 -14.8133 -12.9053  -9.6303  -9.3176  -7.9044  -7.8398  -5.3858
    -4.8301  -4.4285  -4.3195  -2.9846   2.1614   2.7969   3.0508   3.4297

     the Fermi energy is    -0.4490 ev

!    total energy              =     -49.98572722 Ry
     estimated scf accuracy    <       0.00000065 Ry
     smearing contrib. (-TS)   =      -0.00078636 Ry
     internal energy E=F+TS    =     -49.98494087 Ry

     The total energy is F=E-TS. E is the sum of the following terms:
     one-electron contribution =    -180.27021772 Ry
     hartree contribution      =      94.80841753 Ry
     xc contribution           =     -23.33788111 Ry
     ewald contribution        =      58.81474043 Ry

     convergence has been achieved in   6 iterations

     Writing all to output data dir ../../outdir/borophene.save/

     init_run     :     13.36s CPU      8.35s WALL (       1 calls)
     electrons    :    155.58s CPU    128.31s WALL (       1 calls)

     Called by init_run:
     wfcinit      :     12.06s CPU      7.29s WALL (       1 calls)
     potinit      :      0.29s CPU      0.17s WALL (       1 calls)
     hinit0       :      0.82s CPU      0.69s WALL (       1 calls)

     Called by electrons:
     c_bands      :    127.15s CPU    108.37s WALL (       6 calls)
     sum_band     :     26.43s CPU     18.39s WALL (       6 calls)
     v_of_rho     :      1.53s CPU      0.94s WALL (       7 calls)
     newd         :      0.62s CPU      0.68s WALL (       7 calls)
     mix_rho      :      0.14s CPU      0.14s WALL (       6 calls)

     Called by c_bands:
     init_us_2    :      1.26s CPU      1.04s WALL (     182 calls)
     init_us_2:cp :      1.26s CPU      1.04s WALL (     182 calls)
     cegterg      :    124.72s CPU    106.54s WALL (      84 calls)

     Called by *egterg:
     cdiaghg      :      0.21s CPU      0.15s WALL (     367 calls)
     h_psi        :    123.24s CPU    104.82s WALL (     381 calls)
     s_psi        :      3.45s CPU      2.12s WALL (     381 calls)
     g_psi        :      0.41s CPU      0.37s WALL (     283 calls)

     Called by h_psi:
     h_psi:calbec :      4.64s CPU     -9.88s WALL (     381 calls)
     vloc_psi     :    114.79s CPU    112.44s WALL (     381 calls)
     add_vuspsi   :      3.35s CPU      1.80s WALL (     381 calls)

     General routines
     calbec       :      6.23s CPU     -8.80s WALL (     465 calls)
     fft          :      1.10s CPU      0.85s WALL (      77 calls)
     ffts         :      0.07s CPU      0.04s WALL (       6 calls)
     fftw         :    113.34s CPU    114.26s WALL (    9732 calls)

     Parallel routines

     PWSCF        :   2m49.11s CPU   2m16.98s WALL


   This run was terminated on:  16:13:38  22Jul2025            

=------------------------------------------------------------------------------=
   JOB DONE.
=------------------------------------------------------------------------------=
