
     Program PWSCF v.7.2 starts on 22Jul2025 at 16: 6:24 

     This program is part of the open-source Quantum ESPRESSO suite
     for quantum simulation of materials; please cite
         "P. Giannozzi et al., J. Phys.:Condens. Matter 21 395502 (2009);
         "P. Giannozzi et al., J. Phys.:Condens. Matter 29 465901 (2017);
         "P. Giannozzi et al., J. Chem. Phys. 152 154105 (2020);
          URL http://www.quantum-espresso.org", 
     in publications or presentations arising from this work. More details at
     http://www.quantum-espresso.org/quote

     Parallel version (MPI & OpenMP), running on       2 processor cores
     Number of MPI processes:                 1
     Threads/MPI process:                     2

     MPI processes distributed on     1 nodes
     423 MiB available memory on the printing compute node when the environment starts

     Reading input from ../k/alpha_6.in

     Current dimensions of program PWSCF are:
     Max number of different atomic species (ntypx) = 10
     Max number of k-points (npk) =  40000
     Max angular momentum in pseudopotentials (lmaxx) =  4
     file B.pbesol-n-rrkjus_psl.1.0.0.UPF: wavefunction(s)  2S renormalized

     Subspace diagonalization in iterative solution of the eigenvalue problem:
     a serial algorithm will be used


     G-vector sticks info
     --------------------
     sticks:   dense  smooth     PW     G-vecs:    dense   smooth      PW
     Sum        1735    1735    499               117515   117515   17051

     Using Slab Decomposition



     bravais-lattice index     =            4
     lattice parameter (alat)  =       9.5000  a.u.
     unit-cell volume          =    1485.0171 (a.u.)^3
     number of atoms/cell      =            8
     number of atomic types    =            1
     number of electrons       =        24.00
     number of Kohn-Sham states=           16
     kinetic-energy cutoff     =      70.0000  Ry
     charge density cutoff     =     280.0000  Ry
     scf convergence threshold =      1.0E-06
     mixing beta               =       0.7000
     number of iterations used =            8  plain     mixing
     Exchange-correlation= PBESOL
                           (   1   4  10   8   0   0   0)

     celldm(1)=   9.500000  celldm(2)=   0.000000  celldm(3)=   2.000000
     celldm(4)=   0.000000  celldm(5)=   0.000000  celldm(6)=   0.000000

     crystal axes: (cart. coord. in units of alat)
               a(1) = (   1.000000   0.000000   0.000000 )  
               a(2) = (  -0.500000   0.866025   0.000000 )  
               a(3) = (   0.000000   0.000000   2.000000 )  

     reciprocal axes: (cart. coord. in units 2 pi/alat)
               b(1) = (  1.000000  0.577350 -0.000000 )  
               b(2) = (  0.000000  1.154701  0.000000 )  
               b(3) = (  0.000000 -0.000000  0.500000 )  


     PseudoPot. # 1 for B  read from file:
     ../../pseudo/B.pbesol-n-rrkjus_psl.1.0.0.UPF
     MD5 check sum: a3839a09b1a4e02f2a06a66adc9253fc
     Pseudo is Ultrasoft + core correction, Zval =  3.0
     Generated using &quot;atomic&quot; code by A. Dal Corso  v.6.3MaX
     Using radial grid of 1059 points,  4 beta functions with: 
                l(1) =   0
                l(2) =   0
                l(3) =   1
                l(4) =   1
     Q(r) pseudized with 0 coefficients 


     atomic species   valence    mass     pseudopotential
        B              3.00    10.81100     B ( 1.00)

     24 Sym. Ops., with inversion, found



   Cartesian axes

     site n.     atom                  positions (alat units)
         1           B   tau(   1) = (   0.3333330   0.0000000   0.0000000  )
         2           B   tau(   2) = (   0.6666670   0.0000000   0.0000000  )
         3           B   tau(   3) = (  -0.1666665   0.2886748   0.0000000  )
         4           B   tau(   4) = (   0.1666665   0.2886748   0.0000000  )
         5           B   tau(   5) = (   0.5000005   0.2886748   0.0000000  )
         6           B   tau(   6) = (  -0.3333335   0.5773506   0.0000000  )
         7           B   tau(   7) = (  -0.0000005   0.5773506   0.0000000  )
         8           B   tau(   8) = (   0.3333335   0.5773506   0.0000000  )

     number of k points=     7  Marzari-Vanderbilt smearing, width (Ry)=  0.0200
                       cart. coord. in units 2pi/alat
        k(    1) = (   0.0000000   0.0000000   0.0000000), wk =   0.0555556
        k(    2) = (   0.0000000   0.1924501   0.0000000), wk =   0.3333333
        k(    3) = (   0.0000000   0.3849002   0.0000000), wk =   0.3333333
        k(    4) = (   0.0000000  -0.5773503   0.0000000), wk =   0.1666667
        k(    5) = (   0.1666667   0.2886751   0.0000000), wk =   0.3333333
        k(    6) = (   0.1666667   0.4811252   0.0000000), wk =   0.6666667
        k(    7) = (   0.3333333   0.5773503   0.0000000), wk =   0.1111111

     Dense  grid:   117515 G-vectors     FFT dimensions: (  54,  54, 108)

     Estimated max dynamical RAM per process >     205.35 MB

     Initial potential from superposition of free atoms

     starting charge      23.9977, renormalised to      24.0000

     negative rho (up, down):  3.125E-05 0.000E+00
     Starting wfcs are   32 randomized atomic wfcs

     total cpu time spent up to now is        9.1 secs

     per-process dynamical memory:   110.9 Mb

     Self-consistent Calculation

     iteration #  1     ecut=    70.00 Ry     beta= 0.70
     Davidson diagonalization with overlap
     ethr =  1.00E-02,  avg # of iterations =  2.1

     negative rho (up, down):  3.596E-04 0.000E+00

     total cpu time spent up to now is       18.8 secs

     total energy              =     -49.85350935 Ry
     estimated scf accuracy    <       0.74575965 Ry

     iteration #  2     ecut=    70.00 Ry     beta= 0.70
     Davidson diagonalization with overlap
     ethr =  3.11E-03,  avg # of iterations =  2.0

     negative rho (up, down):  6.539E-04 0.000E+00

     total cpu time spent up to now is       16.8 secs

     total energy              =     -49.97604087 Ry
     estimated scf accuracy    <       0.01973678 Ry

     iteration #  3     ecut=    70.00 Ry     beta= 0.70
     Davidson diagonalization with overlap
     ethr =  8.22E-05,  avg # of iterations =  3.6

     negative rho (up, down):  7.595E-04 0.000E+00

     total cpu time spent up to now is       26.3 secs

     total energy              =     -49.98112017 Ry
     estimated scf accuracy    <       0.00594718 Ry

     iteration #  4     ecut=    70.00 Ry     beta= 0.70
     Davidson diagonalization with overlap
     ethr =  2.48E-05,  avg # of iterations =  2.0

     negative rho (up, down):  8.789E-04 0.000E+00

     total cpu time spent up to now is       33.9 secs

     total energy              =     -49.98240849 Ry
     estimated scf accuracy    <       0.00018801 Ry

     iteration #  5     ecut=    70.00 Ry     beta= 0.70
     Davidson diagonalization with overlap
     ethr =  7.83E-07,  avg # of iterations =  8.4

     negative rho (up, down):  8.894E-04 0.000E+00

     total cpu time spent up to now is       35.8 secs

     total energy              =     -49.98243466 Ry
     estimated scf accuracy    <       0.00002057 Ry

     iteration #  6     ecut=    70.00 Ry     beta= 0.70
     Davidson diagonalization with overlap
     ethr =  8.57E-08,  avg # of iterations =  2.1

     negative rho (up, down):  8.899E-04 0.000E+00

     total cpu time spent up to now is       44.5 secs

     End of self-consistent calculation

          k = 0.0000 0.0000 0.0000 ( 14727 PWs)   bands (ev):

   -16.2241 -12.0800 -11.9991 -11.9991  -9.7139  -9.7138  -7.6134  -7.0847
    -2.0086  -2.0086  -0.5705  -0.0447  -0.0447   0.2975   0.2976   0.6133

          k = 0.0000 0.1925 0.0000 ( 14700 PWs)   bands (ev):

   -16.0992 -13.1017 -12.1019 -11.1079  -9.8030  -9.4112  -7.1319  -6.8909
    -3.1394  -2.9654  -2.1343  -0.7701   0.0148   1.4001   1.5515   1.7195

          k = 0.0000 0.3849 0.0000 ( 14698 PWs)   bands (ev):

   -15.7458 -14.0619 -12.2686 -10.9258  -9.1967  -8.7218  -6.6493  -6.3309
    -4.6434  -3.9180  -3.7628  -1.3611  -0.3382   3.0153   3.2612   3.3864

          k = 0.0000-0.5774 0.0000 ( 14686 PWs)   bands (ev):

   -15.4002 -14.6174 -12.3390 -11.0001  -8.5336  -8.2601  -6.9180  -5.7323
    -5.3844  -4.7283  -3.9723  -1.5617  -0.4850   3.6061   3.9987   4.3054

          k = 0.1667 0.2887 0.0000 ( 14689 PWs)   bands (ev):

   -15.8572 -13.7942 -12.3921 -10.5170  -9.8127  -8.8053  -6.7262  -6.5110
    -4.1864  -3.7798  -3.2340  -1.8435   0.8221   1.7953   2.1903   3.0405

          k = 0.1667 0.4811 0.0000 ( 14666 PWs)   bands (ev):

   -15.4321 -14.5166 -12.6648 -10.3350  -9.1275  -8.1378  -7.2092  -5.8180
    -4.7553  -4.4360  -4.1352  -2.4498   0.8936   3.0286   3.2367   3.8341

          k = 0.3333 0.5774 0.0000 ( 14640 PWs)   bands (ev):

   -14.9874 -14.9874 -12.9321  -9.4058  -9.4057  -7.9794  -7.8629  -5.1027
    -5.1027  -4.3546  -4.3546  -3.0488   2.6096   2.6096   3.2032   3.2032

     the Fermi energy is    -0.5204 ev

!    total energy              =     -49.98244003 Ry
     estimated scf accuracy    <       0.00000041 Ry
     smearing contrib. (-TS)   =      -0.00073219 Ry
     internal energy E=F+TS    =     -49.98170784 Ry

     The total energy is F=E-TS. E is the sum of the following terms:
     one-electron contribution =    -180.27522062 Ry
     hartree contribution      =      94.81818376 Ry
     xc contribution           =     -23.33941141 Ry
     ewald contribution        =      58.81474043 Ry

     convergence has been achieved in   6 iterations

     Writing all to output data dir ../../outdir/borophene.save/

     init_run     :     12.62s CPU      9.03s WALL (       1 calls)
     electrons    :     86.49s CPU     35.40s WALL (       1 calls)

     Called by init_run:
     wfcinit      :     10.24s CPU      6.99s WALL (       1 calls)
     potinit      :      0.67s CPU      0.54s WALL (       1 calls)
     hinit0       :      1.48s CPU      1.21s WALL (       1 calls)

     Called by electrons:
     c_bands      :     69.62s CPU     23.60s WALL (       6 calls)
     sum_band     :     14.52s CPU     10.08s WALL (       6 calls)
     v_of_rho     :      2.13s CPU      1.39s WALL (       7 calls)
     newd         :      0.68s CPU      0.81s WALL (       7 calls)
     mix_rho      :      0.20s CPU      0.13s WALL (       6 calls)

     Called by c_bands:
     init_us_2    :      0.67s CPU      0.59s WALL (      91 calls)
     init_us_2:cp :      0.67s CPU      0.59s WALL (      91 calls)
     cegterg      :     68.16s CPU     22.45s WALL (      42 calls)

     Called by *egterg:
     cdiaghg      :      0.13s CPU      0.08s WALL (     184 calls)
     h_psi        :     70.24s CPU     23.96s WALL (     191 calls)
     s_psi        :      2.04s CPU      1.25s WALL (     191 calls)
     g_psi        :      0.25s CPU      0.24s WALL (     142 calls)

     Called by h_psi:
     h_psi:calbec :      2.83s CPU      1.75s WALL (     191 calls)
     vloc_psi     :     65.14s CPU     20.85s WALL (     191 calls)
     add_vuspsi   :      1.94s CPU      1.03s WALL (     191 calls)

     General routines
     calbec       :      3.69s CPU      2.32s WALL (     233 calls)
     fft          :      2.01s CPU      1.51s WALL (      77 calls)
     ffts         :      0.05s CPU      0.05s WALL (       6 calls)
     fftw         :     63.22s CPU     21.18s WALL (    4838 calls)

     Parallel routines

     PWSCF        :   1m39.27s CPU     44.70s WALL


   This run was terminated on:  16: 7: 9  22Jul2025            

=------------------------------------------------------------------------------=
   JOB DONE.
=------------------------------------------------------------------------------=
